ITEM: TIMESTEP
31021185
ITEM: NUMBER OF ATOMS
11520
ITEM: BOX BOUNDS pp pp pp
-0.62835 50.7684
-0.653001 52.76
-0.615655 49.7426
ITEM: ATOMS id type x y z vx vy vz fx fy fz 
1 1 14.565 51.2015 48.4882 1.64322 1.21073 -0.265872 -4.87629e-05 1.73349e-05 2.7573e-05 
2 1 29.1028 41.12 0.0550147 -0.484532 -1.4441 2.25508 4.6032e-05 3.099e-05 -1.86148e-05 
3 1 32.7468 3.26171 12.7458 1.34661 -0.0485955 2.67446 -3.44599e-06 -1.57935e-05 5.24383e-05 
4 2 4.51397 37.5472 18.0916 -1.13837 1.11427 -1.51971 1.00005e-06 3.37932e-06 -2.87591e-06 
5 1 15.3237 13.7321 17.0404 -0.896727 0.250566 -0.939021 -1.40444e-05 6.80225e-07 2.64042e-05 
6 1 35.6297 0.538695 42.9541 4.06239 0.683697 -1.91915 -3.6581e-06 -1.43876e-05 7.05584e-06 
7 1 25.2167 20.8617 23.3174 0.958811 -0.0931796 0.804659 1.25032e-05 1.26923e-05 3.11916e-05 
8 1 15.7075 6.39623 32.986 -1.87563 1.0055 -0.0367907 -2.7382e-05 -8.06567e-06 3.62109e-06 
9 1 22.2781 31.9977 6.94613 -0.565064 -0.260972 -1.37848 1.1188e-05 -1.06424e-06 -1.70523e-05 
10 1 49.3154 44.9948 46.0333 -0.944568 0.109771 -4.67373 -1.62959e-06 8.7374e-06 -1.16e-05 
11 1 48.2783 51.9024 30.334 1.47944 -2.34314 -2.10292 -1.72559e-05 1.47178e-05 -7.21508e-06 
12 2 41.533 49.6875 41.7949 -0.938056 0.376402 1.22892 2.46148e-05 2.51668e-05 -3.22667e-06 
13 1 19.3411 30.6821 33.5137 0.264586 3.88165 1.09296 -9.98478e-06 -2.1813e-05 -9.23297e-06 
14 1 20.1209 50.5766 28.3429 -2.15312 3.8225 0.0678386 -1.59519e-05 -1.79314e-05 -3.32007e-06 
15 1 40.8678 9.29689 45.6093 -4.67786 0.205889 0.563682 -1.33891e-06 1.58436e-05 -1.56381e-05 
16 1 26.6789 41.4043 -0.465815 -1.24042 -1.62248 -2.17781 2.51076e-05 1.72767e-05 -1.09629e-06 
17 1 26.2182 24.8977 18.5049 -1.87326 -1.18212 1.50259 2.43093e-05 -7.28041e-06 -4.36494e-06 
18 1 39.2614 1.2063 28.2622 -0.641222 -2.4083 -0.194935 -1.12903e-05 7.9762e-06 -6.62533e-06 
19 1 40.891 26.8197 31.5019 -0.853693 1.3675 0.21386 4.19551e-06 -1.65661e-06 -1.40623e-05 
20 1 49.4695 30.9875 43.4351 0.595222 1.24274 0.470661 3.67712e-05 9.67013e-06 -6.98648e-06 
21 1 3.23276 49.6614 38.5965 0.514228 -1.38366 -0.166254 -7.74745e-06 -3.7497e-05 -9.30537e-06 
22 1 5.96373 8.00049 25.1162 -0.560838 -3.62234 0.249172 -8.43944e-06 -2.13445e-05 -1.4915e-05 
23 1 23.9402 22.2275 13.5864 0.748314 0.404957 -0.172706 6.36694e-06 -2.01422e-05 8.97244e-06 
24 1 38.3789 26.1982 28.2095 -3.51662 0.883861 -0.354955 -1.69353e-06 -7.57047e-06 -8.855e-06 
25 1 3.45351 45.775 9.92683 -0.0799946 0.0727745 -1.91411 -2.67857e-06 2.49538e-06 7.10076e-07 
26 1 3.27755 43.8876 26.6881 -0.596452 -0.81376 -0.08754 8.79858e-06 -1.69428e-05 1.31797e-05 
27 1 17.127 51.7882 12.9009 -1.17725 2.60167 -0.154723 -5.06302e-06 9.92499e-06 2.48685e-05 
28 1 28.6265 29.1512 49.6036 0.807166 -1.10807 1.52738 8.90988e-07 1.63869e-05 8.7308e-06 
29 1 24.1819 12.155 48.7859 0.898456 1.29138 -3.60555 -3.27507e-07 -3.43855e-06 1.84427e-06 
30 1 5.50568 22.1281 47.2007 0.229929 4.19294 2.08547 2.52003e-05 7.79661e-06 1.16485e-05 
31 1 47.792 35.0651 13.5184 -3.2454 2.8262 2.71664 -3.57008e-06 2.36605e-05 1.1589e-05 
32 1 47.069 24.6051 25.3562 -0.256655 -0.489511 -1.36168 -6.43873e-07 1.54119e-05 -1.43209e-05 
33 1 28.2197 24.4108 2.92098 -1.13081 -0.817419 0.894747 1.38325e-05 1.32555e-05 -6.78244e-06 
34 1 1.37085 17.0849 20.0799 -2.01097 -0.174767 -1.34459 -3.05781e-06 -4.00111e-06 -1.01553e-05 
35 1 37.9635 45.6295 32.6104 -0.963755 1.56212 2.31855 -7.27884e-07 -1.09851e-05 -1.32295e-05 
36 1 0.192167 37.2841 26.2689 0.0586362 -0.470904 3.18266 -9.20923e-07 -9.4483e-06 2.62346e-06 
37 1 18.1375 47.7782 6.59454 1.6503 -2.67705 -0.965072 -3.61951e-06 -2.51926e-05 6.19921e-06 
38 1 29.039 22.8889 44.9392 -2.48633 3.36774 1.64796 1.64578e-05 1.70479e-05 -2.81349e-05 
39 1 45.3996 32.8259 48.811 -0.686216 -2.84473 -3.1673 3.83155e-05 1.12533e-05 7.40661e-06 
40 1 49.2362 3.72976 20.6994 -0.821071 -0.674782 -0.252301 -1.02343e-05 1.11924e-05 -8.15994e-06 
41 1 47.7235 46.1002 11.4079 0.697239 -2.14598 -0.522263 -9.65135e-06 1.76329e-05 2.23305e-06 
42 1 27.8282 23.4813 47.1319 -3.86291 0.715314 1.31169 2.98692e-05 -7.79093e-06 3.21616e-06 
43 1 0.999918 26.2575 31.6029 -1.7561 -1.44704 1.89511 7.57618e-06 1.4131e-05 -7.83325e-06 
44 1 37.1973 32.2318 21.8476 -3.72026 1.05451 1.98821 -6.67288e-06 1.02412e-06 2.36233e-06 
45 1 1.72863 20.3117 12.3798 -0.832593 -2.25969 0.347281 -8.0256e-06 -1.19914e-07 9.3443e-06 
46 1 14.798 23.7644 12.8577 0.544202 0.00662254 2.22697 -6.8652e-06 -1.45267e-05 1.6587e-05 
47 1 39.2359 40.7752 21.0495 0.879829 2.10073 -1.5658 1.7503e-05 -4.98462e-06 7.4999e-06 
48 1 6.09824 20.8628 4.82156 -0.24089 -1.87067 0.223572 1.86867e-05 -5.29344e-06 -1.18613e-05 
49 1 7.65649 7.30101 2.41707 1.7327 -1.74225 1.27725 7.25741e-06 -5.21755e-06 1.45611e-05 
50 1 31.5303 50.3639 49.4197 -0.162107 -6.69546 -1.83235 1.0154e-06 3.25317e-05 2.22395e-06 
51 1 28.8428 41.5184 45.9643 -0.1341 0.379588 2.02759 -3.19879e-07 -1.45372e-06 -2.24966e-05 
52 1 29.9317 49.3345 39.7945 -5.56103 -2.34126 -3.73472 -6.70448e-07 -7.97212e-06 -1.66038e-05 
53 1 24.3641 20.3441 11.9966 2.05875 -1.21511 -2.47602 -2.98421e-05 -2.98514e-06 -1.47457e-05 
54 1 49.0962 3.93341 5.18785 -0.123243 -3.8185 -0.283874 -1.07333e-05 1.02532e-05 9.15232e-06 
55 1 38.5784 -0.121004 20.526 -0.371314 0.80114 3.00573 -5.61925e-06 -3.09174e-06 2.74088e-06 
56 1 37.9535 30.1674 20.2879 0.130845 2.37039 -2.15036 -9.20913e-06 1.76645e-05 3.88847e-06 
57 1 41.4824 20.9419 1.7473 -1.85064 -0.740361 -4.04218 -9.7406e-07 8.97764e-06 -2.80741e-05 
58 1 12.9182 29.726 22.8463 0.475993 1.58095 -2.1075 5.58954e-06 -1.56406e-05 4.1841e-06 
59 1 47.2067 31.8981 44.4912 -0.711747 0.296946 -1.76744 2.62035e-05 1.42331e-05 2.21702e-06 
60 1 24.606 24.5238 14.3392 -1.57761 0.229196 1.86611 1.14905e-05 1.47659e-05 -8.5934e-06 
61 1 11.653 3.70076 16.0747 1.3903 1.17751 -1.43207 -1.90818e-05 -4.69994e-07 1.71264e-05 
62 1 22.0044 24.4424 37.6478 0.272193 -3.50135 0.669706 -2.18779e-05 1.2885e-05 -1.43697e-05 
63 1 10.1201 14.5574 2.08733 1.4891 -0.312373 0.765588 1.35102e-05 2.42724e-05 1.76229e-05 
64 2 3.26654 37.0808 22.4027 0.0455033 -0.798546 1.79668 1.46192e-06 4.68346e-06 -3.19491e-06 
65 1 32.7691 3.32197 46.6701 -2.73609 -0.476079 0.413633 -1.98348e-05 2.07831e-06 1.45744e-05 
66 1 1.96474 36.7937 43.3368 0.456126 -0.658592 -1.45379 2.36941e-05 2.20626e-05 -2.83164e-05 
67 1 38.5521 21.4251 46.2985 -1.67937 -1.11717 -1.70655 3.1082e-05 -1.59383e-05 -2.01301e-05 
68 1 4.67794 28.3342 48.6661 6.4507 -3.11506 -0.866798 1.11426e-05 4.79139e-07 -6.21598e-07 
69 1 40.3559 20.5849 34.3038 1.88849 1.16459 2.44235 1.1264e-05 2.56269e-05 -6.75198e-06 
70 2 34.0816 51.2912 21.881 -1.1211 3.10843 -0.807291 -3.91116e-05 1.10393e-05 -9.7973e-06 
71 1 11.257 10.4668 27.1235 0.238475 -0.885528 -0.340447 -1.87925e-05 1.23129e-05 3.01987e-05 
72 1 43.3147 37.654 0.718941 0.892148 0.371178 -0.314877 -2.06618e-06 4.04369e-05 -9.91439e-08 
73 1 12.9952 24.1622 24.335 -0.743622 2.73767 1.16426 -1.12485e-05 -1.41294e-05 1.65167e-05 
74 1 9.78016 22.59 3.11163 0.608762 0.240366 -1.03962 2.68054e-05 1.71958e-05 4.98279e-05 
75 1 50.6033 29.9292 39.6164 -0.297213 1.27783 0.891118 2.55642e-05 -6.58591e-06 -1.02492e-05 
76 1 36.9525 11.0394 25.4719 3.59111 -1.83999 -2.9435 1.81995e-05 -7.85831e-06 -1.46555e-05 
77 2 23.0371 13.9103 17.7006 -0.476962 -0.307297 0.297764 -1.83349e-05 -1.97421e-07 5.59086e-06 
78 1 31.3201 13.665 12.3889 0.957018 -1.07211 -1.78954 1.48389e-05 -2.03415e-05 -3.48778e-05 
79 1 15.4031 17.6967 27.3068 2.28639 -0.384623 -1.44952 8.45387e-06 -4.53291e-05 1.4126e-07 
80 1 32.6982 18.5839 2.25811 3.16386 0.323632 2.92195 1.57466e-05 3.79591e-05 -2.32245e-05 
81 1 26.5926 38.3451 42.7648 2.7015 -1.23961 0.996483 1.97884e-06 -2.87798e-05 -7.38847e-06 
82 1 0.715547 37.6306 28.8238 3.41008 0.497194 -0.901881 1.66179e-06 -3.78501e-06 1.63862e-05 
83 1 25.849 5.75825 20.2772 -3.84511 0.556413 2.82485 -2.32033e-05 9.8629e-06 3.08651e-05 
84 1 8.06884 36.9385 39.8356 -3.20756 -0.445615 -0.858075 7.85598e-06 -6.17321e-06 1.31498e-05 
85 1 44.3715 29.8548 16.5317 1.24838 -1.76069 -3.11537 3.32551e-06 -1.02969e-06 -3.44971e-06 
86 1 16.7499 51.5468 15.7513 2.5941 -3.72575 1.3155 -2.17945e-05 4.42347e-06 1.67985e-05 
87 1 28.9338 8.83523 12.0285 -0.710711 1.23179 -0.251967 6.00685e-05 5.24603e-05 -6.69674e-05 
88 1 48.4568 35.6272 30.1046 1.06774 -2.08308 0.622664 -3.79666e-06 -1.95652e-06 1.31952e-05 
89 1 34.4523 10.482 49.3505 0.0821757 0.51262 0.0040086 8.92879e-06 2.16413e-06 -7.29837e-06 
90 1 4.06178 36.0424 42.2799 1.31504 1.31322 0.687892 1.71034e-05 2.88458e-06 -1.18579e-06 
91 1 39.6507 52.4652 12.7954 -0.842265 -0.301054 -1.38018 -3.74911e-06 2.05355e-05 -1.65498e-05 
92 1 34.9418 50.8208 34.5326 -0.134866 0.604131 -0.339614 -9.93742e-06 -5.36647e-06 3.62191e-06 
93 1 36.3237 50.1178 21.3928 1.52018 -1.54781 -5.02704 -1.94629e-06 -3.65714e-05 1.27939e-05 
94 1 38.349 34.2966 40.6744 -0.836689 -0.7089 -1.64373 1.31295e-05 -5.08527e-06 -1.14242e-05 
95 1 22.9652 0.822579 4.11086 0.989201 2.5945 -1.16943 2.24773e-07 -1.15828e-05 -3.06209e-05 
96 1 3.39932 42.2597 31.3623 0.42017 -0.013868 3.42453 -4.4371e-06 -7.93013e-06 1.18755e-05 
97 1 11.5861 18.3636 39.4929 1.55702 -0.923609 1.16915 1.94512e-05 6.39521e-06 -9.46181e-06 
98 1 47.9783 4.21295 18.7805 0.681467 -3.66659 1.35201 -5.67481e-06 1.39653e-06 3.05315e-05 
99 1 29.3175 48.6905 37.1979 -0.391965 -2.54768 2.39518 9.24568e-06 -1.05085e-05 4.26213e-07 
100 1 1.04746 28.6823 35.6828 1.36393 2.52356 -1.02068 1.12959e-05 7.84922e-06 -1.92277e-05 
101 1 37.3243 36.3247 35.4271 -0.970469 3.27617 -0.0049342 -4.21271e-06 -2.16131e-05 -2.79192e-05 
102 1 15.1396 35.2087 38.981 -4.66929 -3.13374 1.12887 -1.93089e-06 -2.04611e-05 1.93904e-06 
103 1 46.8871 28.172 22.9634 2.14295 -0.120796 -3.14329 1.8118e-05 -1.59724e-05 -4.41852e-06 
104 1 5.17513 51.6878 9.54403 -3.08322 3.31202 0.804244 -7.1476e-06 7.33786e-06 -1.19323e-05 
105 1 -0.214929 12.6956 46.5105 -4.31866 -0.807902 -1.16076 8.1567e-06 -8.01472e-06 -1.92155e-07 
106 1 7.85978 10.2294 20.3159 -2.57615 1.01094 0.502226 1.91372e-06 -1.57254e-05 7.31639e-07 
107 1 43.327 22.4929 3.0086 0.695913 1.05503 -1.42626 1.04215e-05 6.42294e-06 -2.59581e-06 
108 1 1.15333 23.5636 39.6322 1.51284 1.13297 -0.473434 2.42297e-05 7.23137e-06 -1.00711e-05 
109 1 14.8964 10.416 45.303 2.37295 4.19367 0.344465 1.74619e-05 -1.10565e-05 2.25446e-05 
110 1 44.2082 23.1846 49.1606 3.55532 -2.05965 0.224123 1.32145e-05 7.5958e-07 -3.30731e-06 
111 1 22.2095 2.73136 1.94483 -0.035435 -1.4746 -1.01769 5.33632e-06 -3.74206e-05 -3.49462e-05 
112 1 27.409 9.41338 19.1484 1.7731 -2.7774 -2.69096 2.17437e-05 6.51553e-06 -4.94024e-05 
113 1 7.03792 2.68172 11.4265 2.95974 2.21267 -2.20767 -6.09869e-06 6.70698e-08 2.40394e-05 
114 1 40.9009 8.07466 30.5634 -5.06492 -0.873195 0.323976 -1.34082e-05 -2.05513e-06 5.26014e-06 
115 1 1.44061 28.1923 43.6466 2.8733 -0.548153 0.363841 6.4514e-06 -2.85319e-06 2.43472e-06 
116 1 13.0641 17.0858 47.9773 1.98235 3.20769 -3.68401 2.3376e-06 -9.08446e-06 1.00497e-05 
117 1 0.92485 3.37732 23.5745 2.87488 -0.133547 2.51252 -1.18853e-05 -2.16336e-05 1.08026e-05 
118 1 11.9096 40.3226 12.3561 3.24501 -2.44001 1.06226 -1.91095e-05 2.19309e-06 3.23976e-06 
119 1 50.0012 2.17133 6.53314 0.381521 -1.13306 1.19857 -3.17635e-05 -6.65284e-06 1.84098e-06 
120 1 46.658 40.7158 26.563 -0.0464309 1.83972 -1.5536 -1.28624e-05 5.07253e-07 6.97475e-06 
121 1 34.6795 19.9096 21.8948 -1.08645 -3.88208 -1.66599 -1.05021e-05 2.14705e-05 7.13138e-05 
122 1 23.7163 30.8881 49.398 -1.4036 3.53804 -0.0769143 -9.38845e-06 5.67928e-06 1.07114e-05 
123 2 10.3195 37.2069 -0.319289 2.25077 -0.0609695 -1.18127 2.04367e-07 -4.45078e-06 1.22447e-05 
124 1 31.7221 48.5388 12.7083 -0.980382 -0.630125 0.956723 -2.60702e-05 -2.34711e-07 9.83024e-06 
125 1 38.2817 39.7446 28.5944 -3.54836 -0.95777 -1.75759 -5.60659e-06 -4.49455e-06 -4.60141e-06 
126 1 13.4337 49.4949 11.056 1.55688 -2.17826 -0.295037 8.09844e-06 1.41381e-05 1.89257e-05 
127 1 26.0795 12.3047 36.298 -1.13041 1.60721 -2.78255 1.21649e-05 -5.10007e-06 -4.32425e-06 
128 1 35.4632 25.4287 37.912 2.96063 -5.22456 2.39426 2.36348e-05 6.89719e-07 -3.6509e-05 
129 1 26.6054 15.2269 48.3636 -1.24519 3.30383 -1.76324 1.43314e-05 3.18331e-06 1.8285e-05 
130 1 14.4449 33.6193 30.059 0.667583 -0.518646 0.947095 8.6449e-07 -1.98241e-05 1.28617e-05 
131 1 33.2047 43.0328 46.2567 1.54998 0.777345 0.329109 -5.49559e-05 6.03473e-05 -1.67355e-05 
132 1 2.03406 47.6181 2.04887 -0.275628 -3.21509 -0.861011 -5.84541e-06 1.82405e-05 -5.52885e-06 
133 1 21.8903 43.4942 30.5008 -0.777485 -1.60312 -1.13205 -2.92761e-05 -1.88893e-05 -1.25933e-05 
134 1 50.0759 5.0793 48.7122 6.43043 -0.302417 0.262802 -8.47441e-06 -4.06168e-06 -2.47725e-05 
135 1 8.10296 27.1483 28.0799 0.68008 -1.82562 -0.454409 2.5932e-05 -1.24712e-05 2.61495e-06 
136 1 18.4009 42.9608 22.7504 1.84601 -1.46201 0.610719 -1.96004e-05 -6.85398e-06 1.3216e-06 
137 1 1.56104 8.10694 26.3204 0.213145 -6.6629 1.30104 -1.14748e-05 -1.73494e-05 1.7194e-05 
138 1 28.5645 45.7643 17.0833 -0.235138 -2.76019 -1.69635 -2.1774e-05 -6.67116e-06 -2.51241e-06 
139 1 50.0155 2.93118 22.897 -4.16761 -4.12997 -1.25485 -6.03479e-06 -1.40362e-05 -4.39101e-06 
140 2 5.00469 49.1455 23.5451 1.64676 -2.24054 1.44119 -1.77988e-05 -1.99954e-05 -3.7297e-06 
141 1 22.0675 31.6233 3.91018 0.0633992 -2.81049 -1.18206 6.37394e-06 1.4892e-05 4.49436e-06 
142 1 28.3818 10.644 4.11183 0.753696 -3.1991 -2.38778 -2.64699e-05 4.65023e-06 6.25334e-05 
143 1 17.0821 35.6397 27.6902 -0.206155 0.102515 -1.66637 -4.10869e-06 -1.8252e-05 -3.9478e-06 
144 1 48.3241 21.2981 14.959 2.53712 -2.48578 0.327785 1.11169e-05 1.37042e-05 -2.29927e-06 
145 1 8.54056 38.371 34.0631 -0.757013 -3.53762 1.14074 5.10428e-06 -1.45259e-05 -1.54951e-05 
146 1 6.58679 6.06748 38.5896 1.42491 0.441347 1.47325 1.05876e-05 5.3457e-06 3.91255e-05 
147 1 40.489 40.2709 7.76951 0.668051 1.22225 -1.4084 -2.47821e-05 1.2082e-05 -4.85332e-06 
148 1 43.0904 36.454 46.1951 0.164177 3.90903 -1.33307 1.68688e-05 1.11932e-06 -8.16576e-06 
149 1 0.0286384 27.1109 0.957012 0.185075 1.05105 0.683381 7.01125e-06 6.96858e-06 -7.93975e-06 
150 1 46.6054 12.3777 22.445 -1.42365 0.990703 1.40992 -5.0837e-06 7.95518e-06 -4.37067e-06 
151 1 18.5559 39.2661 7.97759 2.14295 0.469644 1.00437 1.04655e-05 1.02274e-05 -7.91884e-06 
152 1 47.0274 4.32085 47.8545 2.01906 -2.57571 2.99107 2.27056e-05 -2.87618e-06 -3.14671e-06 
153 1 10.2539 17.7123 45.0303 -0.752196 3.34651 -0.0223275 1.67852e-05 1.68713e-05 -3.31634e-06 
154 2 26.0039 4.17583 38.5357 -1.01787 -0.294252 -0.506031 1.40979e-05 -7.61123e-06 1.80595e-05 
155 1 39.0236 28.2742 31.8498 1.15462 -0.111525 -0.41814 9.93259e-06 -1.81092e-05 -3.34957e-05 
156 1 5.26996 46.0631 21.6873 -2.31715 1.20393 1.60036 -2.18139e-05 2.6637e-06 6.68652e-06 
157 1 16.6492 45.8906 6.56687 4.11197 -0.736399 -1.19605 -8.03285e-06 -7.48293e-06 5.68791e-06 
158 1 30.1023 32.6473 37.7479 -2.7654 0.691309 1.37948 -7.62372e-06 1.25719e-05 -1.18654e-05 
159 2 0.452414 25.4015 26.9327 0.735322 -0.693455 1.57591 8.69159e-06 -1.12434e-06 -1.8275e-06 
160 1 26.0741 13.0497 40.4196 -1.77077 -1.07284 -0.186115 1.40492e-05 -1.04341e-05 6.79838e-06 
161 1 37.3563 32.8512 14.842 1.78376 0.849317 -1.16838 1.81852e-05 2.48425e-05 -1.31693e-05 
162 1 25.0048 44.017 33.6915 -0.472631 -0.0489863 -1.01234 -2.22699e-05 -2.2579e-05 6.40088e-07 
163 1 12.9377 31.8654 14.8364 2.71865 2.74009 0.400144 2.30038e-06 -2.30296e-05 -6.22622e-06 
164 1 24.1945 26.9771 14.8771 -2.62658 -0.673078 -0.422445 -1.03094e-05 9.68449e-06 -2.07413e-05 
165 1 37.7853 17.8815 33.5936 1.1102 -3.49662 -0.732495 9.48774e-06 -3.9054e-06 -9.44583e-06 
166 1 17.369 16.2332 14.5392 -1.88182 2.80613 -4.11005 3.51666e-05 1.16491e-05 2.64148e-05 
167 1 34.0632 24.2318 7.58843 -4.08356 4.62839 0.986379 3.85718e-05 1.58025e-05 -2.51254e-05 
168 1 20.1354 46.9381 0.236875 -0.822485 0.448015 0.264477 -1.4825e-06 -7.631e-06 3.16806e-05 
169 1 30.9183 46.0424 24.2957 -1.03235 2.19516 -2.76784 2.15746e-05 1.57398e-05 -3.44872e-05 
170 1 42.5048 27.2386 3.22295 2.12297 -1.94049 -0.89039 2.13391e-05 1.53435e-05 -9.05847e-06 
171 1 2.05906 27.1168 9.63094 -1.36573 2.13466 4.7249 7.15088e-06 1.63583e-05 -1.71535e-06 
172 1 50.5413 36.3441 17.0007 3.17425 -2.92985 1.20202 -4.46065e-06 9.92832e-06 -1.21431e-05 
173 1 10.2032 23.4319 30.5631 -2.35987 -2.20832 -1.50684 5.20138e-06 -2.76942e-05 4.63043e-08 
174 1 17.0574 48.2004 22.9711 -0.864248 0.474502 1.91571 -1.03703e-05 -2.72905e-06 1.00256e-05 
175 1 30.9529 35.4893 19.3319 3.23455 1.30861 0.148942 -1.31934e-05 -3.78172e-06 -3.56008e-05 
176 1 26.6017 26.8336 14.6557 -1.32273 0.496057 1.58781 8.71934e-06 -1.57192e-05 -7.99083e-06 
177 1 2.33415 18.1925 29.1436 -1.38135 -0.554345 -0.0370106 1.11447e-05 -2.76406e-05 -1.92784e-05 
178 1 47.201 37.8413 -0.538786 1.85802 -0.0761932 1.61075 -1.36036e-07 2.8748e-06 4.49866e-05 
179 2 41.8656 18.3294 28.49 -1.5038 -0.641524 -1.41429 1.69539e-05 -3.86986e-06 1.63028e-05 
180 2 29.343 1.06667 33.478 0.689239 0.514686 0.505258 -3.15477e-05 4.25261e-07 -5.00691e-07 
181 2 15.9051 51.7495 30.4044 -0.975369 1.60082 0.905979 7.64598e-06 -6.51848e-06 1.79626e-05 
182 1 44.3337 25.3974 7.30465 4.38384 1.00651 1.16462 1.02724e-05 8.06282e-06 -8.18934e-06 
183 1 45.5046 30.196 3.36121 1.8491 -1.62255 -2.20303 -1.01699e-05 8.34525e-07 1.26767e-05 
184 1 5.7203 6.4485 7.92558 6.71436 -0.114822 1.40115 -1.2538e-05 -4.87663e-06 2.02934e-05 
185 1 34.0102 36.8184 1.75296 -1.70656 -0.877531 -1.16211 -2.59145e-06 9.42832e-06 -2.89684e-06 
186 2 17.6423 2.71704 30.8605 -1.12731 1.22858 0.401035 -1.18133e-05 -1.07095e-05 -2.14163e-06 
187 1 42.4568 45.2105 29.6334 0.729469 1.82555 6.65945 -3.772e-06 -1.18962e-05 -1.10731e-05 
188 1 27.3591 46.0868 3.67569 -0.621261 -0.178667 -5.56515 6.41598e-06 -8.85198e-06 3.98579e-06 
189 1 9.10801 18.3807 39.6196 -1.09871 1.34867 2.62632 -1.67434e-06 -1.44612e-05 -4.49415e-06 
190 1 6.52231 16.8439 36.9797 -1.05511 0.108827 -2.93644 4.37767e-06 -7.99328e-06 1.2632e-05 
191 1 41.5928 11.5956 46.1121 -2.33673 -0.357161 -2.2103 6.54766e-06 -6.87246e-06 -1.36893e-05 
192 2 17.5225 44.9958 31.1485 0.538557 1.48034 -0.938022 -5.18987e-06 -1.49982e-05 2.19041e-05 
193 1 39.1998 8.49169 13.6025 1.8478 3.18458 -1.64536 -1.3135e-05 4.56624e-05 -1.12511e-05 
194 1 8.09101 42.3693 46.28 -2.61828 -0.0969279 -2.51852 -1.63135e-06 2.56081e-07 2.63188e-05 
195 1 40.4518 48.2297 14.0755 -0.344679 1.07746 0.0209567 -2.46648e-05 2.90094e-06 3.08909e-05 
196 1 13.2119 25.29 18.9704 -0.0794798 -1.82131 2.50076 5.53686e-06 -1.40788e-05 -4.70005e-06 
197 1 19.1117 4.21297 24.3564 -0.372449 0.207288 4.0198 -2.93626e-05 -1.04024e-05 3.30163e-05 
198 2 43.7943 49.8983 26.8882 -1.92841 -0.546171 2.12882 -5.37124e-06 1.4319e-06 1.11126e-06 
199 1 10.4538 28.808 11.7051 0.541774 -3.82503 -0.725459 1.01419e-05 1.81956e-06 -4.33022e-06 
200 1 48.7044 35.5256 18.6814 -1.20636 0.381857 -0.222796 5.37385e-06 -4.37387e-06 -5.34155e-06 
201 1 9.62491 26.2686 19.5036 0.735887 0.710961 -1.96352 2.43596e-06 -1.71355e-05 2.0026e-05 
202 1 22.6308 21.0715 39.0534 -0.138551 3.68058 -0.0220528 1.52892e-05 -2.02397e-05 1.20366e-05 
203 1 30.0897 12.4163 -0.204472 -0.574773 -1.62398 1.4994 -4.88978e-08 5.86678e-06 1.67462e-05 
204 1 14.3014 -0.315155 12.3215 -3.72726 2.29291 -1.41963 -1.92517e-06 1.19847e-05 1.64574e-05 
205 1 34.7737 29.2089 37.6828 -0.480602 1.87886 -2.33243 -7.35547e-06 1.28118e-05 -3.79226e-05 
206 1 6.46395 3.46221 40.7061 1.28651 2.58317 0.496815 1.22545e-05 -9.6289e-07 1.16312e-05 
207 1 47.8837 41.793 18.9925 -0.518969 1.83777 -1.50776 -7.92285e-06 1.50523e-05 -1.34997e-05 
208 1 12.171 39.1565 41.2674 0.211921 2.02619 1.93572 1.70198e-06 1.0815e-06 4.85997e-06 
209 1 18.3852 6.99067 11.2903 1.95032 -1.38396 1.84139 6.50125e-05 -1.12661e-05 -8.91178e-06 
210 1 49.9243 6.79015 25.8542 -4.29989 -1.39122 2.90623 -2.10434e-05 -7.46255e-06 -1.41702e-05 
211 2 10.3385 37.6129 17.9834 -1.08889 0.0756383 0.118604 -5.3139e-06 -2.57679e-06 -1.90823e-05 
212 1 19.088 9.96682 44.568 -2.33989 1.65781 -0.439441 -7.40283e-07 1.6847e-05 -8.37921e-06 
213 1 24.9522 12.6589 16.5014 0.699214 1.11781 3.19315 -9.52677e-06 -5.77739e-06 -2.03362e-05 
214 1 28.9344 32.5709 48.1801 -4.33491 -3.91968 -0.419077 1.91061e-06 8.9291e-06 -6.59661e-06 
215 1 42.9846 18.8326 13.395 -1.62187 -6.66091 -0.947327 1.58372e-05 2.52883e-05 -6.72117e-06 
216 1 35.7348 15.3901 6.89057 3.04834 1.82564 0.510917 -2.47527e-05 -1.37031e-05 -3.13905e-05 
217 1 18.4862 34.9693 17.8201 -1.35998 2.06945 -1.17769 -1.36911e-05 -9.27347e-06 -7.26281e-06 
218 1 23.3034 41.5907 3.37735 -0.939061 -0.344661 0.746621 7.27398e-06 -9.42116e-06 7.47404e-06 
219 1 31.438 38.8785 5.50239 -0.414109 -0.546207 -0.910175 2.64117e-05 8.42868e-06 -4.84667e-06 
220 1 39.1512 50.7801 14.7368 -1.70489 2.68122 0.5751 -1.64444e-05 8.27861e-06 2.21424e-06 
221 1 35.5413 -0.423778 23.3103 1.57893 1.71353 1.21501 3.98245e-06 1.92532e-05 -4.52728e-06 
222 1 1.94355 24.9599 8.31714 3.74133 -0.349042 -0.611881 2.01757e-05 -1.69637e-05 -1.90778e-06 
223 1 19.2553 12.9928 19.4166 0.746785 -1.12762 0.0775683 -7.88026e-06 -3.80567e-07 4.92809e-05 
224 1 41.7564 43.2356 10.0629 0.703489 -2.22802 3.05135 -7.92385e-06 7.88203e-06 -8.348e-06 
225 1 37.0251 50.7863 5.76012 0.173946 2.42271 -5.72083 -1.83085e-05 1.59238e-05 1.77039e-05 
226 1 4.13082 15.1981 0.438358 0.623427 -3.393 0.337906 1.27755e-05 1.82916e-05 1.26153e-05 
227 1 22.8636 37.7069 17.8386 -3.81912 -2.17573 -0.520222 -1.13137e-05 -1.04687e-05 8.75442e-06 
228 1 28.241 25.1929 34.8972 1.76354 2.41178 1.90122 1.45243e-05 5.74766e-06 2.78912e-06 
229 1 34.0862 21.2181 17.3367 -1.13738 -3.11438 -0.40978 1.7781e-05 -2.30662e-05 2.31464e-05 
230 2 13.5978 40.0513 38.7609 -1.415 -0.168212 1.11656 1.07511e-05 -1.62828e-05 6.60384e-06 
231 1 46.7033 34.116 10.8638 -1.57947 2.00617 1.19287 2.58022e-05 6.44948e-06 3.22171e-06 
232 1 20.165 10.9753 49.5144 0.005168 0.808037 -0.553677 -5.77321e-06 1.80274e-05 -2.02458e-05 
233 1 42.1818 15.7262 47.8419 0.136471 4.27368 0.0539677 2.89273e-06 -1.5531e-05 -2.20592e-05 
234 1 39.1596 17.0972 44.9677 0.942697 -4.12993 -0.627986 2.38922e-05 6.49958e-06 -2.47918e-05 
235 1 2.235 22.4886 24.3866 3.53723 -2.32385 -2.22168 4.0548e-06 -1.61717e-05 -1.06168e-05 
236 1 43.1312 12.7915 44.413 -3.06025 0.576702 -2.96886 -9.13928e-06 -1.28861e-05 -2.13454e-05 
237 2 39.1421 2.09971 9.24371 1.308 1.24009 1.57727 6.36096e-07 1.99261e-05 8.57789e-06 
238 1 42.9373 20.3144 37.1402 -1.83942 2.27303 1.31267 9.79388e-06 4.69318e-06 7.05954e-06 
239 1 9.57458 47.5099 4.42146 -0.906243 2.14316 1.37865 1.32944e-05 -3.71627e-06 1.88535e-05 
240 1 41.1201 26.241 35.0817 -0.837303 -1.78621 1.38969 1.06459e-05 6.49113e-06 -2.96382e-06 
241 1 43.4252 3.3255 0.417718 0.85821 -0.283101 -0.316074 8.0772e-06 1.2341e-05 -1.66971e-05 
242 2 26.3114 45.4829 49.5993 0.710794 -0.626671 -1.92029 1.46771e-05 -3.04887e-06 -9.81113e-06 
243 1 22.624 42.2112 10.374 2.92912 -2.74106 -5.75888 1.20625e-05 -1.08291e-05 7.07555e-06 
244 1 38.4708 21.2298 19.6655 -2.61135 1.11057 -1.9004 -3.40383e-06 1.27284e-05 1.21699e-05 
245 1 27.7654 46.0406 27.2285 2.61053 0.596936 -2.85655 -1.80602e-06 -1.05833e-05 1.16797e-05 
246 1 21.6598 14.0384 36.1508 1.55846 -1.78372 1.49959 1.99598e-06 6.36417e-06 4.21922e-05 
247 1 25.0069 9.78376 19.7255 1.77802 -1.14301 2.72465 4.28508e-05 -2.75297e-05 -2.71521e-05 
248 1 18.433 9.62655 15.3128 0.52205 0.533079 -1.89131 -1.70403e-05 7.10645e-06 4.83646e-06 
249 2 15.6798 31.4868 44.9454 -1.86591 -0.353363 -1.00766 -6.21644e-06 6.81244e-06 1.6777e-05 
250 1 33.7334 16.5719 30.6997 -2.32404 1.94754 -0.212198 2.68364e-05 -9.03918e-07 -3.2737e-06 
251 1 11.747 10.107 21.3769 -2.21451 -3.4635 -0.517196 -1.72248e-05 -2.2582e-05 -3.92454e-06 
252 1 22.8723 39.5149 -0.0833511 0.51363 1.85475 -0.157807 1.74123e-05 2.19378e-05 -2.83823e-05 
253 1 42.9712 37.3709 5.50471 0.347393 2.51864 -0.79732 -3.76584e-05 2.04433e-05 -3.7793e-05 
254 1 4.10794 23.4736 36.411 -0.304678 6.27612 1.86313 1.12928e-05 -2.4749e-06 1.70429e-05 
255 1 31.8497 42.2157 37.9806 -0.125332 -1.99878 -1.7586 -4.63878e-05 2.61931e-05 2.53278e-05 
256 1 5.27135 49.9541 11.4905 0.850067 0.914003 -0.231312 -4.61076e-06 3.76113e-06 1.46982e-05 
257 1 50.2811 30.7621 23.041 0.803777 -2.39349 -1.30125 1.93206e-05 3.99114e-06 1.09355e-05 
258 1 26.2335 46.9306 5.87419 1.74765 5.26063 0.441014 -1.291e-05 2.26771e-05 -5.95033e-06 
259 1 13.3987 18.0186 10.2112 -0.954578 1.27273 0.879794 -7.25644e-06 9.38253e-06 1.47737e-05 
260 1 46.3792 13.5714 30.51 0.651882 2.49649 -0.854732 -6.72593e-06 -8.67371e-06 -1.47741e-05 
261 1 45.6679 16.2399 19.9683 0.520389 2.72677 -0.777267 -8.68819e-06 1.92166e-06 1.02478e-05 
262 1 50.0043 26.8125 45.365 -1.80628 4.10709 0.459984 1.94011e-05 1.07518e-05 -1.6369e-05 
263 1 3.10186 29.4222 36.8589 2.07189 -1.10388 -0.398197 -2.91782e-06 5.49959e-06 -5.49985e-06 
264 1 10.4308 16.2365 39.7102 0.90202 -0.731081 -0.304221 1.82389e-05 -1.28404e-05 -4.80595e-06 
265 1 22.1679 10.6539 45.2831 -4.82713 -0.334331 -0.12116 8.77672e-06 1.44766e-05 -9.31137e-06 
266 1 32.7052 19.3575 47.7057 0.716674 1.07747 1.02385 -5.89467e-06 -4.1108e-05 3.14975e-06 
267 1 38.3918 34.4764 21.4478 -3.16987 1.42999 -0.131243 9.40097e-06 -4.77143e-06 -3.9843e-06 
268 1 23.6934 8.03045 30.7725 -2.25505 -1.58342 -0.150831 -8.24029e-05 1.16646e-05 9.13033e-06 
269 1 9.71453 41.8263 16.5435 -4.32756 0.597153 -0.824757 8.57931e-06 -6.22431e-06 1.05397e-05 
270 1 8.22051 18.8103 44.1912 0.59956 -0.370635 2.29742 -5.45041e-06 -9.82061e-06 -4.76748e-06 
271 2 40.706 45.8016 31.5579 -2.48041 -0.52405 -0.349858 -1.58205e-06 -9.25781e-06 -1.18111e-06 
272 1 47.6695 9.74999 29.509 -1.79463 -0.576542 0.54902 3.17352e-06 3.16955e-06 -5.53404e-06 
273 1 14.0523 3.34602 19.742 -0.663569 -2.1706 1.36182 7.07697e-06 -3.38073e-06 2.78927e-05 
274 1 24.3689 38.4532 41.731 2.91232 0.737184 -1.0448 2.0871e-05 -1.49154e-05 1.05784e-09 
275 2 27.4797 43.3906 9.11065 -1.0514 -0.874363 1.38931 -2.53098e-05 -1.18971e-05 -6.4666e-06 
276 1 6.4281 43.4837 4.43813 3.60959 0.137605 -1.57767 3.2517e-06 2.30096e-05 7.29845e-06 
277 1 45.3501 11.545 44.5872 -1.42702 -1.82314 -0.250285 -1.60205e-06 5.65332e-06 1.16211e-05 
278 1 39.3666 49.4251 2.27557 -3.88626 -0.99306 -1.73037 -7.1898e-06 2.94335e-05 1.27915e-05 
279 1 16.3097 0.576563 31.8989 1.98904 1.44096 -1.6982 6.49483e-06 -5.8875e-06 2.84443e-05 
280 1 41.5884 45.9967 -0.286145 2.34918 -4.3494 1.15961 -1.73977e-05 5.14912e-05 3.87921e-05 
281 1 9.45593 5.18917 23.7544 -1.9861 1.19886 1.01054 -8.90609e-06 -2.64358e-05 2.60094e-05 
282 2 17.4702 37.8493 14.5366 2.82029 0.24196 1.58641 9.31397e-06 5.77997e-06 -2.77696e-05 
283 1 34.8374 15.7313 26.768 0.940064 -1.20337 -3.32995 2.43447e-05 2.69047e-06 8.0877e-07 
284 1 17.1414 36.2139 35.362 2.88099 -0.539004 2.85931 -5.09574e-06 -1.77332e-05 8.48899e-06 
285 1 25.4797 32.7735 49.024 -0.551305 3.05411 0.801141 -8.27088e-07 2.75968e-05 -2.39879e-05 
286 1 26.9185 21.2738 0.286267 -1.49698 0.240828 3.74976 3.02942e-05 2.3486e-05 -2.97133e-05 
287 1 26.9248 12.2042 13.35 1.06666 1.56374 -0.530586 -2.91712e-05 -2.59831e-06 2.50161e-05 
288 1 41.4689 48.9687 26.9478 2.41621 0.920124 -1.366 2.96796e-06 -3.55743e-06 -8.76948e-06 
289 1 5.73337 51.8837 16.941 -0.819378 -2.66974 -1.14638 5.54249e-06 -1.52872e-05 -1.81934e-06 
290 1 7.5198 13.994 2.00642 -0.777499 0.900528 1.86516 -9.61835e-07 1.56124e-05 7.83481e-06 
291 2 49.3273 52.5016 34.4072 1.29191 -0.922232 -0.978985 -2.98755e-05 1.1076e-05 -1.98117e-05 
292 1 15.9832 37.633 4.96852 1.12807 -1.36612 2.11253 1.19645e-05 1.21191e-05 2.14436e-06 
293 1 24.6381 45.0348 22.633 3.2415 -2.06312 0.749636 -9.11371e-06 -1.89378e-05 1.56428e-05 
294 1 22.9175 43.1002 44.5293 1.12246 -0.0997803 -0.885265 -8.79873e-06 6.79784e-06 -7.03406e-06 
295 1 44.5719 4.93047 4.06926 -0.809897 -0.46411 0.247402 2.32294e-06 1.35283e-05 -1.13357e-05 
296 1 29.6933 20.5306 16.4886 1.45101 -0.351439 2.56169 8.84758e-06 3.80149e-05 -3.08385e-05 
297 1 47.1045 33.9676 17.4555 1.43945 2.52239 0.034499 -3.71417e-07 -1.0519e-05 9.11863e-06 
298 1 7.98778 10.6691 7.97148 -0.290327 -0.996316 -1.50355 1.6476e-05 -2.94244e-06 1.45163e-05 
299 1 26.9113 8.63506 33.4522 -4.20253 0.0314995 -0.57981 -1.97449e-05 -2.1747e-05 -1.23264e-05 
300 1 0.919708 28.4078 40.4132 0.493711 0.643715 -2.23749 -4.52674e-06 1.10586e-05 8.92917e-06 
301 1 21.0082 2.60555 43.0977 0.0297743 -1.73225 -0.481948 -6.45945e-06 -3.60666e-06 2.72374e-05 
302 1 20.9388 19.3342 48.5531 1.69937 -0.596774 -3.49123 2.5499e-05 2.06948e-05 -2.38281e-05 
303 1 37.2544 15.4309 11.8619 0.31272 -0.527156 -0.419854 -1.91092e-05 -8.86988e-06 -3.28576e-05 
304 1 1.83066 30.7599 17.1428 -0.183465 2.79768 4.50481 -1.25879e-05 1.42285e-06 -4.96717e-06 
305 1 15.3611 48.4117 12.1604 -0.354054 -0.215418 -0.886078 -8.9232e-06 -5.44671e-06 9.27386e-06 
306 1 39.8293 12.3042 33.1921 -0.771419 3.16515 1.7808 1.59251e-05 9.87046e-06 -1.08304e-05 
307 1 -0.157773 22.9232 43.3711 -0.740129 2.66093 -1.37933 2.53684e-05 8.60718e-07 -6.61063e-06 
308 1 20.3603 21.7794 49.7401 -0.273736 -0.295623 0.505464 -1.6009e-07 5.86261e-06 -9.14226e-06 
309 1 9.02625 32.126 27.9395 1.3643 1.98466 0.806532 2.59405e-06 -1.63714e-05 -3.32256e-06 
310 1 11.6126 20.9596 3.40322 -2.65928 2.32527 -1.18946 1.03282e-05 1.24258e-05 9.92743e-06 
311 1 -0.218244 12.8701 38.9296 3.3915 1.29852 -0.272821 1.16038e-05 4.32563e-06 1.67476e-06 
312 1 18.967 -0.0545699 38.7849 -1.66941 -2.61296 -1.11373 -1.31137e-05 -2.21397e-06 -2.69427e-06 
313 1 24.0033 0.684442 1.83717 -1.2801 -0.437273 -1.37515 1.12172e-05 -3.32881e-05 -3.63911e-05 
314 1 27.6682 23.2129 19.877 -0.998858 -1.9162 3.06638 1.21117e-05 7.82327e-07 -2.17219e-05 
315 1 8.84319 35.8002 35.1431 -3.26411 0.287815 -1.14283 3.2274e-06 -3.61374e-06 2.32233e-06 
316 1 28.2046 45.6466 24.2649 2.97816 0.762726 1.1578 -1.23805e-06 -2.78356e-06 -8.51482e-06 