ITEM: TIMESTEP
21203
ITEM: NUMBER OF ATOMS
11664
ITEM: BOX BOUNDS pp pp pp
1.28029 55.6868
1.28029 55.6868
1.28029 55.6868
ITEM: ATOMS id type x y z vx vy vz fx fy fz 
1 1 36.4165 19.8952 48.8056 -0.4674 -3.13383 0.848086 -5.54566e-06 4.38008e-05 2.9446e-06 
2 1 33.011 46.606 14.734 -0.403234 -3.23909 -0.295445 -3.59917e-05 5.292e-05 5.42927e-06 
3 1 5.55454 38.336 55.1299 -1.89885 -0.64338 1.85962 6.6215e-06 1.57979e-05 2.50941e-06 
4 2 35.584 9.59818 13.8755 -1.13536 -1.03164 0.667518 2.2808e-05 -1.00954e-05 -1.64558e-05 
5 2 46.8408 35.861 25.6432 -0.512743 2.15505 2.00517 -1.27193e-05 -1.71177e-05 -1.85852e-05 
6 1 10.9373 41.5419 3.43577 -0.590279 1.52725 1.63518 6.04191e-06 1.99639e-07 -5.09436e-06 
7 1 35.4018 1.3744 20.1612 0.726506 -5.59545 2.60253 2.224e-05 2.69936e-05 -3.054e-06 
8 2 12.3012 33.1275 6.29033 -1.0124 0.275378 -0.86902 3.42131e-06 -1.22174e-05 1.72214e-05 
9 1 5.96944 46.5757 47.6373 2.01883 4.20345 -4.35558 2.58689e-05 1.09885e-05 9.72585e-06 
10 1 24.0662 12.5995 47.9222 0.76571 -0.145317 3.74311 4.79974e-06 -1.74234e-05 -8.2206e-06 
11 1 8.68588 19.7431 53.1205 0.367818 -2.53298 1.7183 1.64773e-05 4.30569e-06 6.72713e-06 
12 1 5.18907 24.7149 29.0477 -0.379762 -2.60799 3.23713 -9.21844e-06 -3.68194e-06 9.37828e-06 
13 1 20.603 22.8799 35.7313 0.341006 -1.98189 -2.04598 2.01608e-05 -1.51124e-05 -3.91508e-06 
14 1 47.2574 21.6676 20.7181 0.108346 0.721456 -0.504005 3.27581e-05 1.62182e-05 -1.60428e-05 
15 1 3.83847 39.2631 45.2886 -0.996975 -1.42017 -1.92269 9.18929e-06 -1.13473e-05 2.62188e-06 
16 2 43.5805 52.0512 12.5654 0.993867 -3.10422 1.86749 -1.64368e-06 -1.51744e-05 -3.04765e-05 
17 1 17.8761 55.0136 5.00649 -0.254959 0.482648 -2.73388 2.58916e-06 -1.69516e-05 1.92963e-05 
18 1 53.0841 7.90274 37.7886 5.25287 0.181733 1.10583 -1.83201e-05 2.11526e-05 5.49079e-06 
19 1 14.8808 50.2082 22.7174 0.616016 -0.0582325 1.72581 1.74912e-05 3.15892e-05 -5.13552e-05 
20 1 22.2261 2.79349 26.245 -0.821271 0.714953 0.987551 3.71724e-06 1.06589e-05 -3.4925e-05 
21 1 43.2191 53.3031 2.59847 -0.221091 0.107608 0.684637 -2.23606e-06 -1.19787e-05 -2.01976e-05 
22 2 20.0818 45.5257 53.2232 0.731098 -1.5418 -1.35885 4.31939e-06 2.78979e-05 7.79274e-06 
23 2 27.23 9.8298 47.4227 0.344935 -2.59702 2.14266 1.36312e-05 -8.50894e-06 5.92907e-06 
24 1 28.7357 40.7855 21.4485 1.14917 1.06125 -0.0681965 -1.15009e-05 -2.31441e-05 -2.26771e-05 
25 1 48.503 9.75158 17.548 0.729964 2.2393 -3.05184 -1.61563e-05 1.48275e-05 1.49379e-05 
26 1 2.18713 34.8413 16.8708 -3.15571 -0.691018 -0.830516 -4.46691e-06 -4.48165e-07 9.12652e-06 
27 1 13.9439 23.0457 33.4469 4.6684 1.56246 -2.0846 -1.50647e-05 -5.60225e-06 6.69365e-06 
28 2 30.6674 49.1381 15.3586 -0.179711 0.85683 -0.297348 6.6811e-05 -5.2387e-05 -8.53134e-05 
29 2 44.8992 47.3141 42.931 -1.51851 0.783525 -0.53168 9.20129e-06 1.10204e-05 -2.41353e-05 
30 1 9.33361 17.4663 51.8212 2.91749 2.74876 -1.20208 1.53238e-05 -7.76054e-06 3.72272e-06 
31 2 42.8393 7.54674 42.9497 1.13089 -0.158901 1.42996 -3.11425e-05 -4.4153e-06 1.12702e-05 
32 2 30.6997 24.4727 30.0698 1.19609 1.50221 -0.746951 6.22695e-05 -4.17309e-05 -2.60707e-05 
33 1 42.4181 16.6403 33.5772 -0.60528 1.26724 -0.174987 -2.06394e-05 -1.1973e-05 9.31395e-06 
34 2 54.1774 39.4236 44.0747 0.959661 0.896612 -0.184109 7.73727e-06 -3.45343e-06 1.71279e-05 
35 2 26.7646 52.6589 47.0485 -1.19748 0.843767 2.57109 2.55612e-05 -2.12478e-05 -4.26862e-05 
36 1 34.1721 36.7409 45.0716 0.0957145 0.0992929 1.4633 8.23451e-06 1.69695e-05 -1.11291e-05 
37 2 25.8816 22.883 36.8721 -1.09854 -0.178289 -1.55604 -1.30453e-05 -2.13616e-06 3.60482e-06 
38 2 47.8558 3.15853 35.0169 -0.77694 0.238422 0.914942 8.34384e-06 3.64465e-05 1.95546e-05 
39 1 50.9151 53.9323 37.6151 -1.81541 -0.808426 -2.79985 -9.43905e-05 4.58182e-05 -5.97262e-05 
40 2 34.7349 49.366 26.6222 -0.423165 -1.22156 0.979704 2.20854e-06 -1.00683e-06 1.23809e-05 
41 2 2.0426 38.7116 27.062 0.238925 -0.11155 -0.341075 -7.65795e-06 -6.72875e-06 1.35245e-05 
42 2 47.3 14.3405 42.2239 -0.258852 -1.02784 -0.958374 -3.19715e-06 -1.71019e-06 1.13369e-06 
43 1 45.3015 8.77971 38.3734 2.03233 0.798748 -1.03591 8.44842e-06 1.73042e-05 3.90291e-05 
44 1 14.045 18.6588 17.2661 1.77755 -2.66207 5.20761 4.20653e-06 -3.97983e-06 1.10641e-05 
45 1 51.4086 9.51379 39.1086 -2.15906 1.57116 1.04239 -5.11593e-06 2.86727e-05 1.03523e-05 
46 2 50.8518 15.6336 41.4662 0.295792 0.991831 -1.37838 -3.92338e-05 1.85074e-05 -7.82893e-06 
47 1 25.9369 7.06042 23.402 -1.66975 -2.01396 -2.42013 7.6725e-05 1.47008e-05 -5.40338e-05 
48 1 32.0389 34.2682 50.365 -1.23129 0.0117664 -4.21828 -1.09954e-05 -1.27126e-05 -2.1944e-06 
49 1 25.8665 46.7415 13.0167 -0.042089 0.548928 1.34172 -9.67455e-06 -3.05985e-06 -3.46479e-05 
50 1 8.8971 16.0753 10.2348 2.27846 2.35697 2.82052 1.53298e-05 -7.82973e-06 1.65991e-05 
51 2 30.6591 51.3473 33.6409 -0.209949 -1.07699 -0.278519 -6.36026e-05 7.83662e-05 -3.29314e-05 
52 2 26.0087 10.7436 5.81756 0.249442 0.427166 1.79358 4.03655e-07 2.35425e-06 -2.44829e-06 
53 1 22.9584 21.0656 50.2814 0.351561 1.23565 -2.16139 -7.25956e-06 3.92807e-07 -1.47024e-05 
54 2 25.305 17.7334 52.371 0.847094 0.0508528 1.24455 -1.24707e-05 1.16816e-06 -2.09158e-05 
55 2 46.8235 9.82602 44.5168 -0.730004 0.707923 2.08954 3.21033e-06 7.02937e-06 1.35597e-05 
56 1 6.03902 8.20517 49.3345 3.48515 -1.68556 3.376 -7.6961e-06 -1.19084e-05 -8.72865e-06 
57 1 12.341 31.5498 39.6091 2.37504 -1.71363 -2.72975 -8.70636e-06 1.50347e-05 3.77994e-05 
58 1 52.4004 48.619 26.5696 1.13868 0.531831 5.47031 1.60258e-06 2.56232e-06 3.06327e-05 
59 2 20.3291 24.4629 31.8465 0.653372 0.914043 2.33097 2.13976e-05 1.4652e-05 -1.02877e-05 
60 1 41.6562 45.0115 16.8756 -0.507924 -1.02151 1.11632 -1.51526e-06 1.4994e-06 2.29553e-07 
61 1 44.2614 31.3257 16.0405 -1.04277 2.38188 -4.45615 -7.93656e-07 -1.05005e-05 -2.18789e-05 
62 2 52.0823 27.236 33.5169 -0.809585 0.753072 0.0411258 -1.3983e-05 9.02876e-06 2.07836e-05 
63 1 37.9013 21.0823 17.7119 0.756348 -2.86214 -0.175954 -6.03226e-06 -6.54585e-07 2.06417e-06 
64 1 21.848 46.3483 54.8776 -1.50867 1.04633 -1.21272 1.18641e-06 -8.55382e-06 4.03061e-06 
65 1 7.99064 21.1388 28.1226 2.61841 -2.68327 -0.328149 3.05498e-06 -2.59625e-06 2.60619e-06 
66 1 17.285 37.1132 26.3875 -0.336959 0.106819 0.543311 -7.75685e-06 -2.48853e-05 -1.00131e-05 
67 1 32.0424 41.2755 54.1896 -0.67163 -3.17711 -4.75079 2.75052e-05 6.67257e-06 -2.37325e-05 
68 1 1.78938 24.4191 25.1653 -1.18683 -1.80295 2.56387 -2.29552e-06 1.56963e-05 6.24635e-06 
69 2 52.0221 50.4219 18.7935 0.166429 0.508997 0.196246 -1.75659e-05 2.8481e-07 7.20652e-06 
70 1 49.0291 47.7784 50.9022 3.2952 -2.37285 -1.38602 1.80001e-06 -1.59e-05 -2.53751e-05 
71 2 25.6172 37.2039 33.1977 -0.564906 -1.27878 0.920341 -7.90022e-06 -1.74264e-06 -1.94212e-05 
72 1 47.1983 10.5709 52.0417 -0.51723 2.10307 -0.136451 -6.76842e-06 1.89528e-05 -6.55256e-06 
73 1 37.2755 30.8301 8.83603 -1.21031 3.95892 2.09169 1.04046e-05 6.35055e-06 -1.23035e-06 
74 1 19.2504 29.482 19.857 -1.03182 1.09634 2.68357 6.42359e-06 -1.30163e-05 3.19597e-06 
75 1 4.96479 25.7639 49.0631 -2.35385 1.14564 3.4966 9.97433e-06 -6.2419e-06 -6.81875e-07 
76 1 37.5193 54.683 45.6632 0.596366 -1.86121 3.93607 1.39938e-05 -8.93416e-06 7.30497e-07 
77 2 48.4605 5.40228 46.845 1.98865 -0.417043 -1.87864 -9.39999e-06 -1.16205e-05 -2.4229e-06 
78 1 49.5307 4.48382 4.87554 -1.72819 -3.44519 3.41806 1.17216e-05 -7.94706e-06 -1.81771e-05 
79 2 29.4923 9.17108 49.0078 -0.822426 -0.0167892 0.0760132 -6.47224e-06 -4.55608e-06 5.18641e-06 
80 1 45.655 7.80148 42.8244 1.19706 -0.535344 -2.39654 -8.46333e-06 2.18065e-05 -6.50402e-06 
81 1 54.1691 33.056 32.2906 0.408302 2.90144 -5.46146 -6.79963e-06 -1.43052e-05 1.39225e-05 
82 1 53.0501 54.8348 47.4456 1.02868 -3.82623 -2.19416 -4.23789e-06 -6.68711e-06 -5.02235e-06 
83 1 13.3799 38.2937 12.3192 3.51216 1.41427 3.3099 4.8811e-06 3.60194e-06 -8.25931e-06 
84 1 39.565 50.0526 54.7846 3.95674 1.11385 -1.84953 8.88526e-06 5.50211e-06 -1.36987e-05 
85 2 51.7286 40.4471 32.3952 -0.225923 0.93412 -0.434218 9.88016e-07 -1.12667e-05 1.26981e-05 
86 1 27.8787 7.34653 24.9722 -3.34219 -1.23519 -1.34875 -1.72133e-05 -3.91602e-05 -2.69893e-05 
87 2 4.93767 8.13345 20.817 0.996006 -1.21984 -1.32372 -2.42422e-05 3.58012e-05 1.34184e-06 
88 1 19.9921 44.9508 8.74299 -1.29167 0.921264 -0.873012 1.96764e-05 -2.14979e-05 2.38317e-06 
89 2 50.3493 24.091 22.8545 1.352 -0.500581 -0.607753 8.50461e-06 1.02641e-05 -2.28616e-05 
90 2 35.0943 26.3886 44.4707 1.157 0.0473265 1.10596 -7.29072e-06 -9.25436e-06 3.32804e-06 
91 2 53.0199 13.929 21.5026 0.40921 -1.07198 0.96418 -6.80445e-06 1.90258e-05 -2.96013e-07 
92 2 14.0879 31.3396 37.5943 2.56233 -1.01234 -0.688285 6.3394e-05 3.04862e-05 1.46095e-05 
93 1 13.823 21.701 28.2169 0.580923 -0.934195 -2.14844 -2.5518e-08 -4.49386e-07 6.57374e-06 
94 1 3.06354 2.95443 34.9267 -1.30224 1.96346 1.28336 -3.35298e-05 1.31791e-05 1.4595e-05 
95 1 47.7322 32.3267 45.6208 -2.7962 -3.55142 -1.13245 -2.78613e-06 -4.0186e-06 7.09048e-06 
96 2 16.7131 13.2239 25.4692 0.670128 0.118175 -1.59422 -2.69873e-05 -6.79488e-05 5.38957e-06 
97 1 33.4583 25.6637 42.3395 0.802177 0.872175 -1.16259 -2.7252e-05 1.33875e-05 -7.18934e-06 
98 2 52.5396 41.5476 11.1373 -1.04386 1.52464 -1.49263 1.43207e-05 1.33192e-05 -2.29356e-06 
99 2 55.6243 46.8058 17.8926 1.71974 1.13334 0.020675 1.66897e-05 1.82149e-06 8.49677e-06 
100 2 48.9191 38.3403 8.68014 1.56725 -0.549809 -0.314558 1.7018e-05 -2.94727e-06 1.2027e-05 
101 2 12.3092 45.2298 38.6125 -0.291433 0.843286 0.273451 -1.81723e-05 2.50606e-05 -4.0032e-06 
102 1 40.2592 38.5006 14.9406 0.320194 -4.20799 -5.10649 1.46949e-06 -1.13023e-05 -1.89134e-05 
103 1 7.86384 24.4189 55.0796 2.43818 2.04357 -2.79346 6.78433e-06 7.51665e-06 -6.41897e-06 
104 1 17.0874 15.5942 26.6317 0.121947 1.37451 1.95247 4.72204e-05 -4.09486e-05 -1.0287e-05 
105 2 19.8648 17.4483 45.1978 -0.0245146 -1.04911 0.304166 -1.03185e-05 -2.26659e-06 2.38853e-06 
106 2 14.2527 18.7655 39.8153 -1.73129 0.806879 -0.224337 1.31778e-05 -1.88663e-06 -1.53874e-05 
107 1 48.4704 30.694 29.2717 -1.22155 -3.19268 -0.40386 -1.66058e-06 7.19783e-06 4.46655e-06 
108 2 33.886 48.3752 50.0261 -0.574199 0.868241 2.50966 3.31117e-05 -3.83324e-06 -4.28075e-05 
109 2 39.0456 20.1452 55.5565 0.541863 -1.24889 -2.35509 1.19761e-05 5.02157e-06 -9.96012e-06 
110 2 34.6066 45.9582 32.5118 -0.40709 -1.62703 -1.34668 -2.99517e-05 1.39112e-05 2.52664e-05 
111 1 9.25439 30.147 11.0381 -4.34274 -0.493067 -3.03069 -6.24367e-06 2.07959e-05 7.23151e-06 
112 2 54.3718 26.6535 2.42818 0.0818812 -0.41553 1.38627 7.12753e-06 -3.92238e-06 8.43925e-06 
113 1 53.1617 23.143 19.3153 0.764126 0.435754 3.71739 1.25401e-05 -1.5381e-06 3.92488e-06 
114 1 22.8449 53.0132 52.0612 -2.21069 -3.17511 0.139466 1.6313e-05 7.84828e-06 -1.06849e-05 
115 2 18.2712 32.0878 36.0445 -0.735097 -1.23671 0.283986 6.24838e-06 -2.74312e-06 -7.09049e-06 
116 2 41.0354 51.0955 39.7815 -0.159859 0.162677 -0.337087 -2.36593e-05 -2.5655e-06 5.50025e-05 
117 1 5.73174 26.2896 9.92787 1.21417 -1.00748 -1.71049 1.0655e-05 5.87877e-06 -3.81882e-06 
118 2 49.2882 16.3478 30.2468 -0.247144 1.6082 -0.626082 1.4331e-05 -2.21589e-05 -1.71178e-05 
119 2 52.2456 11.155 45.7246 0.0128303 0.152128 -2.74416 -1.26104e-05 -1.06265e-05 1.94878e-05 
120 2 24.3251 22.8357 34.1267 0.831319 -1.95811 -1.12203 1.92133e-05 -2.89181e-06 3.66451e-05 
121 1 41.2348 32.4696 14.3886 0.737302 -3.38762 -2.46976 5.73472e-06 -4.45647e-06 -1.45842e-06 
122 2 7.53148 54.3027 44.2002 1.05479 0.572099 0.226119 -8.27453e-06 3.67342e-05 -3.832e-05 
123 2 18.9765 6.15699 2.17438 -0.82405 0.00354099 0.465923 8.59498e-06 -1.90518e-05 2.16796e-05 
124 2 20.7036 11.5002 28.4371 0.628186 0.640995 -1.41044 -2.7171e-05 -2.37873e-05 2.90335e-05 
125 1 49.5975 21.3968 19.5709 2.87325 1.15198 3.31192 3.69981e-06 1.92374e-05 -1.11064e-05 
126 1 20.7979 36.5038 41.0744 1.86591 0.738918 2.56105 -9.52653e-06 1.63253e-06 -9.77366e-07 
127 2 41.7957 16.1137 27.0097 0.0379987 1.15933 -0.90048 2.59705e-05 2.58996e-05 1.06664e-05 
128 2 49.3668 20.4572 53.2322 0.586823 -0.361961 -0.740999 6.37001e-07 -6.62928e-06 1.56307e-05 
129 2 26.0717 30.3093 25.1456 0.194051 -0.942006 2.01909 2.39457e-07 -1.92538e-05 -4.70991e-06 
130 2 31.0871 14.9329 20.308 0.587515 2.10499 -1.05262 1.77427e-05 -3.04682e-05 5.32009e-05 
131 2 51.1783 24.944 52.497 0.269753 0.283291 -0.0484553 6.84243e-07 -2.19824e-06 1.03624e-05 
132 2 51.626 41.1968 15.8166 1.16988 -2.10083 0.961197 6.336e-06 1.61587e-05 1.62421e-05 
133 1 47.1079 43.6854 23.5406 0.194457 -0.678218 1.20584 -1.43028e-05 1.69121e-05 -1.89579e-05 
134 1 22.2288 35.1687 35.952 0.619463 -3.91026 -1.93507 -7.48935e-06 -5.67191e-06 -8.58242e-06 
135 2 31.7289 25.4257 32.3716 -0.863934 0.349288 0.0309957 5.38634e-07 1.93919e-05 1.01772e-05 
136 2 33.7713 34.3636 43.6633 0.989103 -1.49401 -0.120537 -6.31234e-06 1.30932e-05 -1.79565e-05 
137 1 28.5367 15.8761 7.8588 -2.33165 3.82464 -0.300018 -9.55351e-06 1.38932e-06 -1.492e-05 
138 2 18.1649 16.2144 6.92229 0.0584624 1.00414 -2.57255 1.70247e-05 4.01015e-06 8.56406e-06 
139 1 40.6127 49.3761 2.69746 -2.60441 2.57313 0.314808 -4.7459e-06 -8.58981e-07 -2.46578e-05 
140 1 16.18 27.9171 54.3293 -1.16373 2.58426 1.73078 -2.89204e-06 5.41494e-06 5.87871e-08 
141 1 24.2736 30.6147 6.99582 -3.41547 -0.639696 -0.299256 -1.89579e-06 3.61464e-07 -8.04467e-09 
142 2 25.714 29.0184 10.8721 -0.00716138 0.836559 0.0935952 1.48687e-05 6.61775e-06 1.05055e-06 
143 1 44.8553 54.8498 28.735 0.746939 0.10624 -1.77101 5.83652e-06 9.92644e-06 1.89318e-05 
144 2 45.5255 50.7911 30.5829 0.194625 1.34862 -2.42691 -2.56217e-05 -2.33142e-05 -5.97666e-06 
145 1 44.1607 28.033 36.506 -1.10024 -2.38934 -0.296716 4.7853e-06 1.56901e-05 -8.04117e-06 
146 1 3.72023 46.1013 8.26265 -2.78786 -0.0436098 -1.69682 1.47255e-05 4.70443e-06 3.15911e-05 
147 1 54.8559 33.7974 9.26778 1.91278 -0.980045 -0.453959 1.43557e-05 2.11265e-05 1.01253e-05 
148 2 29.1072 10.2055 51.5093 -0.0599625 0.671274 -0.329832 4.94536e-06 1.424e-05 2.66984e-06 
149 1 17.3824 43.155 22.1542 -1.95938 -2.8524 -1.07881 3.99699e-05 -3.78164e-05 7.97646e-06 
150 2 24.7263 46.3136 25.7498 -1.73289 1.57545 -0.0466438 -5.49186e-05 -3.18198e-05 -5.80222e-05 
151 2 24.9448 37.12 16.1585 0.754872 -0.172237 0.641887 1.96697e-05 -2.49323e-05 -4.26473e-06 
152 2 21.6737 11.2571 39.9674 -1.70087 -1.00545 -1.29362 6.81583e-06 -2.01296e-05 -1.13017e-05 
153 1 19.2694 25.1046 54.0435 0.537147 -0.0638354 -0.432617 -3.54281e-06 -7.44337e-06 2.0699e-05 
154 1 18.932 30.3184 43.7853 1.10267 -3.96202 -1.58443 7.4571e-06 -2.83179e-06 -1.96483e-05 
155 2 36.2715 48.5629 36.3078 0.112202 -0.367484 0.481726 -5.37059e-05 -3.35259e-05 -5.35972e-05 
156 2 29.4957 3.00514 45.2256 -0.361522 -0.195774 -0.325655 -2.16849e-05 -1.78445e-05 -2.84484e-05 
157 1 4.57795 3.904 25.5358 -1.2171 1.07506 -2.91692 -6.29907e-05 1.61862e-05 2.01179e-07 
158 2 39.0041 22.7766 35.224 1.09544 0.171941 -0.882417 9.21578e-05 -1.4906e-05 2.64056e-05 
159 2 36.8393 6.16079 16.0754 -0.0374304 0.127591 -0.152208 3.27839e-05 2.05774e-05 -1.26149e-05 
160 2 33.1776 34.7112 29.5514 -1.75094 0.0485064 0.691076 -9.7753e-06 2.05672e-05 -3.62009e-06 
161 2 45.9192 42.941 41.0905 0.427479 -1.05184 1.12495 -7.72734e-06 1.00468e-05 -5.3975e-06 
162 2 6.87706 45.617 11.7864 0.15858 0.611657 -0.0666139 2.17766e-05 8.54035e-06 1.66089e-05 
163 1 45.7344 37.0637 15.0862 -1.40588 -1.7054 0.0959526 1.15812e-05 8.76058e-07 -8.42935e-06 
164 2 34.9685 6.98152 36.2146 0.953275 0.325423 1.85242 0.00010371 1.46563e-05 0.000106613 
165 1 25.2492 44.3014 37.1487 -0.953621 1.27244 -3.59741 -1.38864e-05 1.23136e-05 -3.13261e-05 
166 1 27.4478 32.3166 25.9489 -0.720769 -1.29215 -0.627184 8.4489e-06 -2.2465e-06 -6.39908e-06 
167 2 10.5025 54.9006 43.7354 -1.02909 2.69633 -2.36401 -2.29292e-06 -6.73104e-05 2.65819e-05 
168 2 11.6763 50.4703 21.0339 -0.645914 -1.99377 0.236536 -2.308e-05 -2.00754e-05 3.34091e-05 
169 1 19.7536 7.93435 49.6247 -3.86142 -0.674153 3.87885 -8.61468e-07 -1.09056e-05 1.113e-05 
170 1 52.7383 5.84808 50.9493 -0.168098 -0.936792 -2.2185 -5.11921e-06 3.92141e-07 2.38635e-05 
171 1 20.1034 14.8789 42.2562 -0.0180395 1.87502 -3.55524 8.50612e-07 -1.74641e-05 -3.91729e-06 
172 2 50.2768 15.7334 50.721 0.684291 1.25356 -1.37141 -1.4592e-06 -2.60095e-06 9.63963e-06 
173 1 46.9819 19.687 12.0035 -0.248558 -2.93281 0.541232 -1.711e-07 1.58863e-05 -5.02694e-06 
174 1 6.07596 5.86068 7.80014 0.550928 0.603008 0.0651786 2.74049e-05 -1.35446e-05 3.31648e-05 
175 1 29.6833 11.5271 27.5574 0.696326 -1.37479 2.69392 -6.74975e-05 3.00545e-05 -9.8325e-07 
176 2 4.72955 25.1269 37.4882 0.182534 1.88069 0.297324 -6.89922e-06 1.42916e-05 -3.7895e-06 
177 1 29.9785 45.5802 54.8151 1.43073 -2.3942 3.00493 9.44726e-06 1.2008e-05 -3.70608e-05 
178 2 18.1251 51.9184 2.11422 -0.160108 0.699408 -0.241493 1.32849e-05 9.57723e-06 1.42665e-05 
179 2 9.49364 55.0377 5.95988 1.23444 0.473116 0.583863 2.65101e-05 -2.52966e-06 3.16415e-05 
180 2 3.67085 4.69941 23.1523 -1.19732 0.501701 0.0934616 -1.40476e-05 -0.000117155 5.21225e-05 
181 2 8.02814 48.2494 15.7007 0.287674 -1.90434 1.60499 1.51457e-05 8.47082e-07 6.36532e-06 
182 1 4.81671 7.60968 27.4679 -3.70455 -0.261996 -1.20071 -5.51846e-05 -1.50091e-05 3.51369e-05 
183 2 23.4319 45.9492 47.9967 0.512906 0.0134406 0.593644 1.28792e-05 -5.94783e-06 -2.53933e-05 
184 2 41.4755 30.1505 7.83965 -0.191997 -1.42538 1.42535 1.09613e-05 3.07446e-06 -4.03511e-06 
185 1 24.6449 5.7372 30.1681 1.3711 -2.06012 -1.00857 -2.68135e-05 5.14135e-05 3.86288e-06 
186 1 34.8595 46.2119 8.39876 -0.599393 0.583536 -1.85065 -1.30697e-06 1.5038e-06 1.48726e-05 
187 1 7.98445 24.3068 43.5278 1.13219 -0.941613 1.09004 1.29051e-05 1.55641e-07 9.02685e-07 
188 1 27.9201 38.8621 14.9944 -0.306645 -1.77291 2.33429 1.08837e-05 -1.74905e-05 -8.40505e-06 
189 1 7.05075 40.7702 40.0897 1.19308 3.64776 0.805758 4.07198e-06 -4.20165e-06 2.43268e-05 
190 2 8.43009 28.2829 49.9322 0.779488 0.856539 1.11234 1.65462e-06 6.39993e-06 9.35228e-06 
191 1 30.9971 53.8602 3.04523 -1.05948 2.64605 -0.244956 -3.12381e-05 6.73228e-05 2.14727e-05 
192 1 20.933 46.849 22.9543 -1.15118 2.80436 -2.5993 -6.26364e-05 -4.30123e-05 2.78858e-06 
193 2 2.38639 11.2847 28.146 -0.331585 0.256514 -0.10548 1.11517e-05 1.49987e-05 5.18781e-05 
194 2 50.2775 19.2376 17.9874 0.55464 -0.721898 0.111593 -1.05792e-05 1.76282e-05 -2.16297e-05 
195 1 36.7514 31.454 18.9883 0.805253 2.49971 -0.825474 7.77836e-06 1.53628e-05 -1.57783e-05 
196 1 19.996 35.361 48.8174 -3.56001 -2.85852 0.667388 -4.80189e-06 4.06343e-06 -5.77964e-06 
197 1 33.9976 15.167 49.5731 -0.900072 4.54122 1.21379 -3.68701e-05 -2.67444e-06 -4.36871e-06 
198 1 10.4446 41.7677 19.5387 2.26451 1.29548 0.036241 1.13973e-05 2.6904e-06 9.46442e-06 
199 1 37.0471 12.2231 33.1334 -2.04419 0.796839 -0.725642 -5.8171e-05 2.58588e-05 4.9991e-06 
200 1 15.8527 23.79 49.6451 -1.50051 1.22972 -0.799609 -7.18434e-06 -1.54469e-06 4.88778e-06 
201 1 28.5538 30.2449 38.7118 -0.0877535 -1.28326 4.28365 7.99908e-06 -1.84626e-05 -2.02614e-06 
202 1 9.1249 21.3963 11.2461 3.96604 -1.19652 -0.0987586 -4.75752e-06 -1.95795e-06 3.06265e-06 
203 1 22.162 35.5656 50.1632 2.60006 1.3643 1.62435 -8.26623e-06 -1.06044e-05 -1.68623e-05 
204 2 55.1231 43.8666 47.4256 -0.204603 -0.723016 -1.08512 1.5839e-05 1.81418e-05 6.34225e-06 
205 2 46.52 36.4328 20.3242 -0.764991 0.634093 1.01591 1.43235e-05 8.24916e-06 2.01244e-06 
206 1 3.94345 48.1126 37.3667 4.45796 0.506603 0.277665 -6.28953e-05 -9.90605e-06 -1.4303e-05 
207 2 49.4083 15.1035 43.9815 -0.318124 0.413694 1.36064 -1.52927e-05 -8.66792e-07 3.91147e-06 
208 1 46.9842 45.5301 44.3541 1.07179 -1.12485 -4.01359 6.5461e-06 -1.45855e-05 -1.28362e-05 
209 1 45.5792 31.1565 46.95 1.92082 0.123138 2.20186 5.11731e-06 -3.69459e-06 2.61961e-06 
210 2 6.37343 12.6208 34.9105 -1.61134 0.403584 0.396728 -9.10329e-06 1.88337e-05 7.96943e-06 
211 1 38.0306 49.4944 19.0473 3.96508 -2.31825 -1.9331 1.8098e-05 2.48429e-05 -1.94356e-06 
212 1 18.7309 49.1188 38.3918 0.969545 -3.06703 0.518502 -2.76283e-05 2.71319e-05 -2.30662e-05 
213 2 23.8723 31.3362 19.4507 0.404737 -0.587665 0.628224 -8.47982e-06 -1.74569e-05 -3.54025e-06 
214 1 46.2282 34.9232 16.5369 -2.56607 1.47262 1.90484 8.8375e-07 5.14327e-06 -5.10051e-06 
215 1 5.99148 52.8867 26.6603 -2.29624 1.72568 -1.598 -1.06133e-05 -1.80408e-05 3.57352e-06 
216 1 11.6538 15.7494 33.927 -0.93805 -0.997987 1.08094 -1.62106e-05 -2.75028e-05 5.10716e-06 
217 1 53.7072 11.504 20.7521 3.42257 -3.22298 -3.43512 -1.65425e-05 8.34398e-06 4.40871e-06 
218 2 53.3381 51.0202 9.82737 1.41373 -0.107392 -0.0105256 1.3848e-05 -6.08735e-06 -1.87e-07 
219 2 34.0854 4.52676 45.3293 1.50014 1.2687 -1.00845 -2.75529e-05 9.74215e-06 -3.53526e-05 
220 1 36.8138 20.6993 8.65511 4.78449 -1.34223 -2.56769 1.85085e-06 -5.98691e-06 -4.99146e-06 
221 2 54.578 37.7908 15.1476 -0.117576 0.74598 -1.33895 6.24446e-06 1.03613e-06 -2.93156e-06 
222 2 32.6112 16.3252 6.55374 -1.05644 0.755895 -0.974659 -4.00343e-06 9.21764e-06 -1.03474e-05 
223 2 4.67422 39.4422 39.662 0.211209 -1.00565 -0.794441 -4.17623e-06 -1.07653e-05 6.36294e-06 
224 1 55.667 51.7327 31.2395 -0.265424 -1.73392 1.95049 -2.36561e-05 1.75168e-05 8.20643e-06 
225 2 15.4873 14.4333 5.04838 1.47144 0.387984 0.391028 1.3661e-06 -4.6526e-06 1.98471e-05 
226 1 26.6824 41.5961 34.5407 -0.345424 0.241191 0.81568 -2.9866e-05 5.95455e-06 -8.02933e-06 
227 1 2.45587 25.6401 52.1695 0.78121 -2.04179 -0.721766 6.58312e-06 -4.08925e-06 -6.77819e-07 
228 2 25.119 26.5309 12.1748 -1.59309 0.497649 0.707615 5.47887e-07 -2.05257e-05 4.7755e-06 
229 2 39.6104 5.84714 15.36 -1.95776 -1.36636 1.90886 2.27156e-05 1.42249e-05 -4.27667e-06 
230 1 39.9861 24.4222 43.7442 -3.58873 -0.83253 -1.82285 -1.04482e-05 6.08523e-06 1.09153e-05 
231 2 6.07135 2.31629 44.1195 1.99871 1.57702 0.5073 -4.91854e-05 2.06599e-05 8.81235e-06 
232 2 24.1979 42.8172 51.6342 0.666304 0.0445104 -0.207928 -6.47741e-06 1.24854e-05 -5.72623e-06 
233 2 53.3939 26.0565 11.2683 1.71955 -1.79509 1.0198 6.0992e-06 6.11403e-06 -4.11104e-06 
234 2 37.4877 46.9564 19.5244 -1.09003 1.16459 -1.10102 4.4578e-07 -9.23791e-06 -9.04025e-07 
235 1 22.7824 2.77839 45.78 0.6042 0.903424 -1.88219 -1.10769e-05 7.75554e-06 -2.3538e-05 
236 1 21.7392 29.211 37.8858 1.95379 -2.94191 -3.05525 2.51694e-06 9.69722e-06 6.19448e-06 
237 2 23.7686 37.643 40.5802 1.49999 -2.30213 1.81176 -2.02287e-05 -4.4336e-06 -1.26098e-05 
238 1 45.9599 10.0247 47.1008 1.72972 -3.05798 3.6614 -1.32118e-05 7.27767e-06 1.03425e-05 
239 1 10.5174 8.04757 38.1596 -0.597205 0.909154 1.40225 1.76042e-05 -2.84805e-05 1.25144e-05 
240 2 24.0188 52.5127 14.3879 0.647025 0.136951 -0.0800701 4.15907e-05 -1.10719e-05 -4.98186e-05 
241 2 40.864 29.7825 53.6661 -2.4142 -0.0255967 -1.5434 9.00241e-06 8.15039e-06 -1.45575e-05 
242 1 53.8723 45.4588 8.64537 -0.126991 -4.84313 -2.09508 1.34163e-05 9.21772e-06 1.29668e-05 
243 2 41.8442 23.1511 35.0937 -1.29143 1.36615 -2.3803 4.03211e-05 3.55352e-05 8.54262e-06 
244 1 15.9255 3.61391 17.8096 -1.23648 -1.53479 1.47669 2.08091e-05 -8.67218e-05 0.000126884 
245 2 8.62491 21.7898 19.8557 -0.34275 1.36841 1.81899 -5.53566e-06 -1.60817e-05 -1.06567e-05 
246 1 14.5483 54.6779 9.75867 -0.808669 3.19003 -3.39383 2.80088e-05 2.67586e-06 1.98243e-05 
247 1 47.7218 44.5434 17.0214 -0.0945586 -3.74409 1.66136 9.57288e-06 5.6533e-06 9.28897e-06 
248 1 44.1136 24.4132 52.3711 -0.70246 0.249862 0.176816 3.15292e-06 5.13737e-06 -3.79999e-06 
249 2 42.7107 6.96199 47.674 -0.0407293 0.0373875 -0.74654 -2.29314e-05 2.23192e-05 1.57086e-05 
250 2 17.1773 14.9717 9.70752 -1.13063 -0.831919 -0.107337 1.51613e-05 -1.00781e-05 3.36508e-05 
251 1 49.0087 35.7102 9.84917 2.41664 1.32041 -0.833441 1.12553e-06 1.43862e-05 6.9592e-06 
252 2 46.5754 25.917 30.5868 -1.57287 1.00394 -0.437948 5.39015e-06 2.02083e-05 1.51358e-05 
253 1 39.6508 15.1489 39.2811 -3.76131 2.77802 0.591051 5.70586e-06 4.0427e-05 -9.54308e-06 
254 2 55.3576 23.2831 34.5014 -0.621282 1.56499 -0.580933 1.09428e-05 6.03191e-06 2.56281e-06 
255 2 43.6828 42.7353 5.45709 -0.451402 0.248656 1.50737 3.65464e-06 8.30678e-07 -3.19936e-06 
256 1 31.2913 40.5194 34.6917 -3.6684 -2.66545 1.15712 8.15347e-06 1.33994e-06 -2.28568e-05 
257 1 39.7446 21.4623 5.1933 5.00953 1.86371 -1.64734 -2.43187e-06 8.68131e-06 2.33299e-06 
258 2 52.2261 46.8709 36.0396 1.56742 -0.114572 -0.478587 1.13912e-05 -4.7036e-05 7.5755e-06 
259 2 18.2625 43.8849 18.0616 -0.793995 -1.45629 -0.0484198 1.32689e-07 -1.37123e-05 1.89025e-05 
260 1 14.52 31.3651 13.1022 0.718356 -1.48727 1.51809 -1.76662e-06 -7.84659e-06 1.55538e-07 
261 1 48.2825 48.4644 45.9476 -1.25591 -1.49958 -1.46073 -1.74791e-05 -8.87143e-06 -2.77634e-05 
262 1 1.87775 3.75582 1.77114 -0.59451 0.566213 -1.11365 1.87328e-05 -1.29189e-05 1.82228e-06 
263 2 38.8762 1.58718 33.7085 1.5298 -2.68403 1.64758 3.37781e-05 1.79097e-05 2.79987e-05 
264 2 9.13188 32.7491 2.23671 0.486232 0.588428 2.26462 3.71955e-05 3.34221e-05 -3.50461e-06 
265 1 7.38153 35.9503 34.0623 -2.64858 -0.33768 0.0555918 2.10577e-05 -2.80722e-05 -6.79118e-06 
266 1 17.1839 22.3472 41.7947 1.36131 5.98372 0.680988 9.39371e-06 -2.67781e-06 -1.14152e-05 
267 2 40.086 51.0311 35.1181 0.381592 0.606788 0.345779 -5.29827e-05 7.17991e-06 -4.09695e-05 
268 2 36.6177 41.8562 34.1726 2.92484 -1.15695 -1.11453 -3.10484e-06 -7.72381e-06 -2.69398e-05 
269 1 21.8105 38.2838 18.5848 -0.876796 -1.6301 -2.09706 -3.71643e-06 -1.56606e-05 2.4531e-05 
270 2 7.64713 4.12979 12.451 0.0509331 -0.357952 -0.441389 8.3833e-06 -1.3967e-05 5.07259e-06 
271 1 28.4057 36.3057 19.1486 1.30871 0.88871 0.227145 2.58274e-06 -3.01673e-06 2.73689e-06 
272 1 6.99717 47.3268 2.678 -0.443045 0.900826 -1.50609 1.66802e-05 -8.02524e-06 1.8944e-05 
273 2 10.6137 31.0889 7.28046 2.85627 -0.0658709 1.02836 1.32401e-05 -1.05495e-05 3.64763e-06 
274 1 3.82926 23.1841 24.3032 -3.12881 -1.37251 -2.17026 -4.79424e-06 1.25418e-05 -1.84183e-05 
275 2 18.9169 38.3439 22.096 1.29325 0.284763 1.51445 1.55138e-08 -1.51514e-05 3.09163e-05 
276 2 39.852 16.7799 28.7844 -0.249197 -3.1486 0.568003 -3.13107e-05 3.32047e-05 -1.88543e-05 
277 1 31.1734 34.1888 24.441 -0.372654 -3.53631 1.92558 7.67034e-07 -1.89085e-05 3.93452e-06 
278 1 47.7242 48.4711 33.8926 -0.641979 2.02001 0.264004 -4.14515e-06 2.00327e-05 3.10006e-05 
279 2 48.512 12.8716 13.4367 0.525376 1.77231 -0.121506 7.13109e-06 1.77543e-05 -3.92298e-06 
280 2 51.771 10.8543 4.87274 -0.270368 0.171415 0.777171 2.51757e-05 -2.39385e-05 7.61972e-06 
281 1 44.0867 36.6062 43.2494 -3.18343 1.54863 -1.06048 -5.61613e-06 3.51032e-06 -9.17729e-07 
282 2 30.1442 26.9257 19.7944 -1.15983 -0.138198 -2.62178 6.18949e-06 3.23136e-06 4.63142e-06 
283 2 12.849 48.9433 7.58595 1.97475 0.225429 0.85065 1.06471e-05 8.78446e-06 1.40482e-05 
284 1 24.0087 26.5975 46.6973 1.57662 -0.406367 1.47164 -1.08524e-05 -5.04414e-06 -2.65989e-06 
285 2 47.7738 54.3171 48.3754 0.104763 0.676394 0.551036 -1.15235e-05 1.52223e-06 -1.50693e-05 
286 2 33.1528 24.9414 29.47 0.125303 -0.277868 -0.647816 -2.75088e-05 -4.37525e-05 2.29685e-05 
287 2 27.843 50.3704 11.1916 1.04487 1.14607 -0.740054 1.18438e-05 2.13044e-05 -4.00678e-05 
288 1 15.8006 52.9571 26.7242 0.0702325 -2.58648 0.849746 -6.03097e-05 -1.70617e-05 0.000108845 
289 2 15.7233 24.0153 31.6501 1.24414 0.196127 2.09969 -9.64624e-06 -8.12976e-06 -1.98815e-05 
290 1 50.0657 44.1962 3.73071 0.684296 -0.102482 3.85935 2.28941e-05 6.65709e-06 2.08018e-06 
291 2 53.6243 48.053 44.2994 -1.33784 -0.335145 -0.313832 -1.0094e-05 -1.47316e-05 -5.102e-06 
292 1 17.3883 39.2378 38.2514 0.787719 0.760146 1.97752 -2.4888e-06 1.63597e-06 -1.2445e-05 
293 2 47.6934 44.8144 4.30847 -0.0694982 3.16181 1.17317 -2.95871e-06 -1.13862e-05 7.67985e-06 
294 2 41.3329 45.3723 11.4115 -0.438768 -2.51992 0.0871555 -4.94243e-06 1.97319e-05 -1.41913e-05 
295 1 49.8149 54.461 45.1171 -3.81325 1.98963 2.08677 -7.56531e-07 5.08044e-06 1.2025e-07 
296 2 52.9446 33.2965 20.424 -0.525226 0.0808508 0.0866829 1.50877e-05 1.38592e-05 -6.29157e-06 
297 1 30.8394 19.1459 9.0869 -0.836445 1.77209 -0.630351 -1.08832e-05 3.08275e-05 2.32531e-05 
298 1 48.0794 10.0363 30.4685 -0.208589 -2.83829 0.467358 -3.93774e-05 3.37345e-05 1.90179e-05 
299 1 31.0687 1.94653 3.10724 2.5777 -1.03141 1.12422 5.05552e-05 9.93172e-05 0.000128678 
300 1 20.7835 18.8477 14.5259 -1.28338 -0.320817 0.688845 1.94207e-06 -2.56951e-05 9.75483e-07 
301 1 3.92387 51.9531 27.771 1.1832 -0.239329 1.20479 -2.47784e-05 1.81468e-05 1.94257e-05 
302 1 12.1612 27.596 12.0809 0.15219 0.0189033 0.578004 1.89959e-06 -2.74447e-06 2.58413e-07 
303 2 32.6973 37.2835 43.0522 -0.541608 -0.366939 3.07088 -1.7838e-06 -6.20433e-06 -2.15438e-06 
304 2 20.9991 10.4667 25.6497 0.639936 -0.551997 -1.02129 7.50562e-06 6.51704e-07 -1.61063e-05 
305 1 16.1343 41.5659 7.67581 -0.920565 0.710685 1.28979 6.27424e-07 8.17531e-06 -1.67552e-06 
306 2 28.4997 14.4733 45.8561 -1.13219 -1.45588 -0.145654 2.55427e-06 -6.11815e-06 1.18156e-06 
307 1 40.1758 25.0241 34.0112 -0.178734 -3.29015 1.03506 1.73288e-05 -1.36606e-05 -1.52259e-05 
308 1 39.8367 22.2428 47.8693 -2.07014 3.53893 1.97109 -1.51124e-05 4.62094e-06 -1.92471e-05 
309 2 2.97818 55.1985 2.44956 -3.50146 -0.937622 0.0952724 7.70049e-06 1.68047e-05 7.461e-06 
310 2 18.1803 15.6011 29.2533 -0.328141 -0.412898 -2.29311 2.70906e-05 -3.25814e-05 -8.24877e-06 
311 1 14.4793 14.8983 37.5055 1.79898 -0.451561 1.94123 1.27431e-05 3.99955e-06 5.45478e-06 
312 1 19.415 5.91164 27.0687 2.17981 -0.660768 -3.19952 2.80353e-05 -1.66055e-05 -5.80993e-05 
313 1 34.4471 30.9431 36.5941 1.61454 -2.169 0.413097 6.31144e-06 -4.99613e-08 -7.31885e-06 
314 1 25.2188 53.7755 51.9598 -2.42718 2.48168 3.04134 3.40991e-06 5.4491e-06 -1.57651e-05 
315 1 34.9785 50.8191 37.3262 2.60352 0.809546 -2.26893 -1.8952e-05 3.89832e-05 -2.94413e-05 
316 1 37.5872 14.2946 40.5055 -0.0434791 -1.24696 0.344172 -3.16129e-05 -1.70399e-05 -3.0203e-05 