ITEM: TIMESTEP
31021207
ITEM: NUMBER OF ATOMS
11520
ITEM: BOX BOUNDS pp pp pp
-0.998653 51.1387
-1.03783 53.1448
-0.978476 50.1054
ITEM: ATOMS id type x y z vx vy vz fx fy fz 
1 1 34.5383 14.2753 16.1622 1.53466 -2.24671 -1.23943 -5.98496e-06 -1.02493e-05 2.94407e-05 
2 1 3.72918 39.4849 3.54135 1.69883 3.54442 3.40434 6.23707e-05 3.96098e-05 -1.52703e-05 
3 1 48.9195 16.7604 29.3815 -0.349862 4.38699 -1.37649 -1.88117e-05 5.36998e-06 5.43224e-05 
4 2 25.4827 43.3755 12.2153 -1.43457 -1.57712 0.0797456 7.99081e-05 -8.4624e-05 3.45781e-05 
5 1 27.483 1.57937 23.6074 0.675818 -0.0999026 -0.33366 -6.95381e-06 2.71675e-06 -4.36309e-06 
6 1 29.5593 24.9112 19.762 -1.1416 -2.01148 1.68887 -3.2681e-06 3.10583e-06 -1.9598e-06 
7 1 6.08479 27.359 21.0604 0.736117 0.837349 -0.422074 4.92823e-05 -7.79781e-05 3.28077e-05 
8 1 25.9967 14.6371 12.539 -1.3723 2.52145 -3.15026 -6.51068e-06 1.13438e-05 8.44756e-06 
9 2 37.0337 22.1126 48.3653 -1.54652 -0.718221 -1.69714 7.87767e-06 -5.63502e-07 -4.50193e-05 
10 1 20.2014 9.18272 5.41878 2.2498 1.12116 0.22318 -3.12077e-07 5.72065e-07 1.08095e-05 
11 1 36.0931 50.4715 38.9589 1.46264 3.11172 0.577166 4.63968e-06 -6.38208e-06 -2.59565e-06 
12 2 13.8726 5.08967 33.2857 0.757005 -0.0386236 3.14145 -1.44988e-06 6.49925e-06 -1.05522e-05 
13 1 7.23603 25.7096 -0.0848994 2.22368 -0.579255 -1.19632 5.08421e-06 1.20379e-05 -7.025e-06 
14 1 28.1017 41.0388 34.9939 -1.65927 -2.4476 -3.17595 -5.21009e-06 7.40391e-06 -1.37882e-05 
15 1 20.5279 15.9571 22.3388 -2.1942 1.97924 -1.39479 -1.15514e-05 -5.73561e-06 -3.7206e-06 
16 1 2.76969 37.9439 14.9555 1.42419 0.615783 0.0804468 -9.1287e-06 -1.71251e-05 2.55123e-06 
17 1 45.1715 38.4053 42.1837 -0.727545 3.16552 3.02389 -1.16312e-06 2.79426e-05 1.49586e-05 
18 1 16.7303 4.96693 4.15666 2.10244 -0.415645 0.33372 1.25393e-07 9.70542e-06 -6.41458e-06 
19 1 51.0026 48.7139 32.1231 1.17285 0.613445 2.40839 2.15738e-06 -2.07882e-05 -2.17976e-05 
20 1 14.1575 46.4123 12.5338 -0.81024 -0.860905 -0.71622 8.932e-06 1.29002e-05 3.09157e-06 
21 1 42.7299 12.7225 29.0791 0.652374 0.131855 0.449656 -1.76847e-05 -1.38568e-05 2.83882e-05 
22 1 38.4794 18.6524 22.637 -0.641965 -3.25094 1.1124 -1.91105e-05 1.27969e-05 -1.53679e-05 
23 1 41.5824 10.458 18.7653 -5.90357 0.279867 -0.86069 6.58717e-05 -2.67177e-05 -8.06969e-06 
24 1 26.1113 52.9187 46.4795 2.89718 0.362776 -3.43573 -1.19933e-05 -2.56773e-09 1.51742e-06 
25 1 33.7586 25.1883 42.3449 1.67174 -0.295363 -0.170335 -1.03942e-05 1.98059e-05 -2.73746e-06 
26 1 38.9936 11.2047 13.2672 -0.0956861 -0.71349 -1.40412 -3.03603e-05 -4.19154e-05 2.69021e-05 
27 1 3.34974 18.6817 36.755 -0.40387 1.56776 -0.0930901 -5.38484e-06 -8.56138e-06 -1.63082e-05 
28 1 11.5309 20.7283 37.3901 -0.239545 3.53209 2.29284 -1.58567e-06 7.29395e-06 3.87818e-05 
29 1 20.431 19.2904 5.85028 -1.23729 -0.55051 1.05558 1.355e-06 7.26344e-06 1.71714e-05 
30 1 27.9285 13.7593 15.6217 -2.26721 0.975542 1.82544 1.65829e-06 5.00464e-06 -9.5598e-06 
31 1 38.7799 35.5234 23.1875 -2.54946 -0.0784984 -0.972539 1.97868e-05 -3.80047e-06 6.87581e-07 
32 2 20.7465 22.503 44.7093 -1.67624 0.101029 -1.71302 -9.44343e-06 1.48766e-05 1.97777e-05 
33 1 13.6756 34.3105 43.4453 0.0364128 -2.36337 -0.729703 -3.00007e-06 8.85434e-06 -1.8155e-06 
34 1 20.5447 -0.0126208 43.6052 -0.245665 4.18355 2.37975 -1.17337e-05 6.21258e-06 -7.05448e-06 
35 1 34.7134 6.37321 5.89115 -1.47317 -1.43234 3.85438 -1.28101e-05 1.85958e-05 1.22616e-05 
36 1 33.3391 24.4879 12.4254 1.42319 -0.3312 3.97101 1.2832e-05 -3.84955e-06 1.51653e-06 
37 1 46.2541 36.9516 47.7573 -3.17682 -0.409359 1.67104 -1.36141e-05 -1.53652e-06 -1.35281e-05 
38 2 43.7335 38.1368 36.9653 -2.98511 -0.898231 -1.72945 -1.09229e-05 -1.04673e-06 -1.59556e-05 
39 1 25.0717 -0.543585 35.0976 3.7532 3.10282 -1.15472 -8.70766e-06 2.19145e-05 -1.04473e-05 
40 1 24.679 9.62744 2.65937 -1.10825 2.36599 -3.34513 -1.30024e-05 2.50896e-05 1.24616e-05 
41 1 6.88338 8.24175 25.788 -4.43535 -2.61814 3.40368 9.43081e-06 -1.70282e-05 3.00059e-06 
42 1 27.8122 16.604 21.5706 2.12608 0.467597 0.67699 -1.0733e-05 4.18972e-06 -2.83284e-06 
43 2 26.3481 23.4973 30.3839 -0.380392 1.23093 3.68795 -1.13799e-05 2.49456e-05 -2.72049e-06 
44 1 27.0255 35.9386 42.2053 0.29622 0.977608 -1.21372 3.7152e-06 1.40414e-05 -1.22453e-05 
45 1 36.6161 41.838 48.8548 -4.10981 1.77216 0.320563 -1.82363e-05 -1.20603e-06 -2.41729e-05 
46 1 32.5031 36.004 34.0149 0.196248 3.02825 -1.90276 -8.63372e-06 -8.94923e-06 -8.40501e-06 
47 2 21.9892 12.906 8.55849 -1.11809 1.37129 1.49446 -1.77701e-05 -2.88352e-06 2.39419e-05 
48 1 29.1465 5.45864 3.57828 0.134279 0.443209 -2.06441 -1.0276e-05 -3.58463e-06 -2.06618e-06 
49 1 0.140103 2.85007 30.9057 -1.65967 -0.307247 1.03722 -1.38078e-05 -1.83508e-05 -1.61687e-05 
50 1 34.3344 15.6766 46.9807 1.72766 -0.301655 -1.64118 8.45919e-06 -2.9383e-05 -4.90364e-06 
51 1 46.9394 34.9265 26.569 1.3995 -2.42074 0.2206 2.94869e-06 -1.05957e-05 1.97219e-05 
52 1 45.8979 50.6627 43.1414 -2.04233 -1.17358 0.368164 -1.29051e-05 -5.41533e-06 -1.40665e-05 
53 1 16.5492 50.0142 25.6596 0.483354 -2.07904 -0.484451 -2.25205e-05 9.02307e-06 2.05919e-05 
54 1 19.4962 3.09211 46.5079 -2.35753 0.268208 -3.86301 1.25515e-05 -2.81111e-07 -2.1316e-06 
55 1 41.0736 0.52644 25.9232 2.098 -0.56168 1.58585 6.65982e-06 -7.0689e-06 -5.34133e-06 
56 1 42.907 34.4933 49.3423 2.1798 -0.420921 -1.40062 -1.78144e-05 1.17652e-05 -1.1624e-05 
57 1 43.6857 35.4965 43.7137 -1.09277 -0.293924 -2.82392 -2.19759e-05 1.80946e-06 1.19372e-06 
58 1 2.99748 50.8734 37.2133 -1.46146 0.783738 1.32564 2.37831e-06 -2.2975e-05 -2.17786e-05 
59 1 28.5278 50.3159 49.0824 0.948273 -2.54821 1.35662 -8.93738e-06 -1.44782e-06 -1.79405e-06 
60 1 11.9088 29.4538 14.3494 1.67294 -2.69447 2.21884 -8.69031e-06 1.19067e-05 -2.10203e-07 
61 2 8.76303 19.12 19.2275 0.231164 -0.184465 -0.418541 5.54784e-06 1.74737e-05 2.99075e-05 
62 1 13.6914 21.557 33.1971 0.973059 -1.18206 -2.34508 -3.01283e-05 -2.91888e-05 2.54891e-05 
63 1 12.1612 5.16128 29.3925 -1.27961 -1.22422 0.90659 7.10128e-06 -5.52386e-06 -1.49078e-06 
64 2 5.9044 48.7611 11.9625 -1.22253 -3.40363 0.156962 -5.62221e-05 -2.98788e-05 -2.10201e-06 
65 1 30.1831 15.6831 0.618076 0.2353 4.07292 -2.87588 -9.91558e-06 -1.1322e-05 1.3751e-06 
66 1 43.4377 42.326 6.81264 -1.03555 2.29308 -1.40382 -2.26514e-05 -5.1202e-06 5.81364e-07 
67 1 38.4973 13.3342 8.16125 1.52629 1.42265 1.39637 1.28047e-05 1.34497e-05 -4.0823e-06 
68 1 35.5177 23.7005 42.9411 1.81502 2.67348 0.528209 -7.05687e-06 -2.6137e-05 1.2936e-05 
69 1 24.4814 22.0522 15.8308 2.55507 0.423043 2.01918 1.58513e-05 9.71974e-06 -1.30296e-06 
70 2 9.76426 50.3224 5.08249 -0.432278 -0.517258 0.0988167 -8.81047e-06 5.89209e-06 -9.42476e-07 
71 1 44.7712 49.0236 36.1001 0.602817 -0.492062 -2.21839 2.21464e-05 -6.23987e-06 -1.14453e-06 
72 1 49.8004 16.5789 21.2209 2.71121 -4.63052 -1.96146 9.9565e-05 -6.17109e-06 4.13523e-05 
73 1 39.5831 19.3556 8.98409 0.907197 2.22619 0.306059 1.38538e-05 -7.30056e-06 2.98993e-05 
74 1 41.1806 13.7581 44.7541 4.1046 -0.487456 -0.446252 8.63254e-06 1.04353e-05 2.67841e-06 
75 1 50.1725 32.1999 38.9053 2.62874 -1.33997 1.29089 -1.09411e-05 -7.55628e-06 -4.83246e-06 
76 1 11.0052 30.1009 10.7262 1.55125 0.503386 2.62618 7.57858e-06 6.50983e-06 1.00816e-05 
77 2 35.9606 30.2345 30.0035 0.238041 1.36522 1.07737 1.03576e-06 -8.50345e-06 -4.91235e-06 
78 1 24.471 20.3363 8.74021 -1.34244 1.86971 0.421123 1.27658e-06 -1.00216e-05 6.03917e-06 
79 2 11.838 38.0743 22.9143 0.235761 -1.74492 1.64297 -5.1799e-06 2.41175e-08 -7.35884e-06 
80 2 8.90551 17.959 39.2867 -1.64392 -0.749105 -0.276936 -3.51053e-06 -5.99075e-07 3.19235e-05 
81 1 42.6718 3.77317 27.4442 -0.471169 -1.79923 -1.79351 -6.77404e-06 2.56043e-05 -1.53195e-06 
82 1 20.2894 51.9194 0.148879 1.31523 0.0144512 -4.44539 1.54927e-06 1.13125e-05 -5.79608e-06 
83 2 45.3416 16.6851 23.7308 0.76959 0.444236 -1.54965 -1.92934e-07 -1.11339e-05 1.6292e-05 
84 1 35.0386 25.9366 3.20064 -1.29087 0.843345 2.45521 -1.88705e-06 5.83531e-06 2.1272e-05 
85 1 4.76171 12.3924 13.7633 -0.272121 -2.77802 -4.03879 -2.98719e-05 -2.45007e-05 -7.66871e-05 
86 1 22.8755 28.7909 44.9032 2.67023 1.06334 1.46355 1.57503e-06 7.27148e-06 -5.15057e-06 
87 1 3.41351 31.88 7.43009 -0.257612 -0.100618 -2.01058 -3.51811e-06 2.25953e-05 2.72656e-06 
88 1 6.42563 31.1223 48.5403 -2.72923 -0.265037 -0.16271 4.92718e-06 -1.64048e-06 1.17179e-05 
89 2 7.45878 21.587 23.3174 -0.905778 -0.487868 2.90835 0.000128666 -0.000170453 7.60303e-05 
90 1 19.3344 34.8351 32.9974 -1.46995 2.36342 1.63955 3.61181e-06 1.29454e-05 -2.10118e-06 
91 2 7.10698 46.834 28.3896 0.528409 -0.383236 -1.56298 5.48935e-06 9.68405e-06 -4.18062e-07 
92 1 5.55168 36.5973 35.3603 -3.85081 2.77568 -1.89951 -9.67994e-06 1.69212e-05 5.87544e-05 
93 1 7.73544 17.0441 27.7573 3.79035 2.9865 -1.46804 6.03583e-05 -2.74363e-06 0.000126977 
94 1 23.3666 46.9486 47.7985 4.14197 0.108651 -1.17369 3.49586e-06 1.41096e-05 -5.03868e-06 
95 1 46.0467 3.08704 1.684 0.799358 2.21775 -2.87665 -3.01793e-06 -1.24519e-05 -1.96907e-05 
96 1 41.5043 2.29116 30.4122 1.11619 -1.29115 2.86244 1.75817e-05 -1.40778e-05 -4.14508e-05 
97 1 13.751 23.5573 23.1878 1.14706 1.61114 3.73065 2.03654e-05 4.49502e-06 3.7306e-05 
98 1 26.8464 3.63352 33.7634 -2.66518 -0.196685 -2.46195 -2.10321e-05 -6.26081e-06 -6.76668e-06 
99 1 10.621 47.3875 45.4983 1.0734 -0.17083 -0.167493 -4.78912e-06 -8.04676e-06 -1.05145e-05 
100 1 8.0871 38.6443 7.75466 2.14334 -9.8497e-05 0.773448 7.9407e-06 -3.31667e-06 7.78901e-06 
101 1 7.95882 22.2118 16.7557 -3.47024 -0.971989 -4.75893 2.86131e-05 -5.0879e-05 7.22209e-05 
102 2 0.527847 23.0187 27.0078 -1.35147 -0.0152092 1.1937 5.80078e-05 -0.000117949 -7.61146e-05 
103 1 49.2776 46.3501 32.9664 1.0661 -0.354969 -1.63196 -8.94825e-06 -3.67777e-05 -2.47693e-05 
104 1 11.5929 33.881 36.9506 0.763483 0.0775771 1.77063 2.20646e-07 8.4672e-06 6.84268e-07 
105 2 17.427 32.2345 21.4046 1.28899 -1.82094 -0.36156 5.88854e-06 4.95318e-07 2.4815e-05 
106 1 43.9859 28.6496 29.2056 6.28448 2.07797 4.44951 -4.16827e-06 -1.28188e-05 3.85523e-05 
107 1 33.0663 33.4931 49.5651 -1.45791 2.15875 -0.607278 7.63846e-06 1.05014e-05 -5.90035e-06 
108 1 36.0237 26.1021 42.0028 0.313959 -0.0378656 2.24601 -1.60167e-06 -6.15152e-06 -1.09935e-05 
109 1 41.6618 7.42454 22.0107 0.476889 3.18711 -3.08712 1.22503e-05 -4.42186e-05 3.36754e-05 
110 1 0.687607 40.0921 42.3175 1.98303 2.44146 -0.402881 4.2028e-06 -8.72928e-06 -6.14064e-07 
111 1 37.7318 29.6719 41.1395 -0.452019 0.407087 0.304471 1.66707e-06 1.28365e-05 -2.96557e-06 
112 1 37.047 24.6577 49.8047 1.66308 3.64721 1.06298 1.06772e-06 4.31849e-08 1.54165e-05 
113 1 39.425 3.50541 4.69365 -1.57623 -3.13084 -0.821523 1.25779e-05 -1.13345e-05 -1.78174e-05 
114 1 6.43779 50.2545 20.4377 0.674002 -0.928209 -0.965738 -4.3531e-06 -8.68342e-06 -1.6444e-05 
115 1 34.7254 46.9234 48.92 -0.65454 -2.7004 0.00529018 -5.65934e-06 -3.56069e-07 -9.67234e-06 
116 1 32.5959 14.8361 18.18 0.700113 -1.88785 -0.140972 -3.70495e-05 -5.86273e-06 4.16805e-05 
117 1 38.635 8.81133 43.2447 -1.23551 -1.25062 2.411 -1.66952e-05 5.49983e-07 -3.42791e-06 
118 1 44.6559 20.1569 33.4105 -2.8477 -2.29721 -1.24679 9.68148e-06 -4.69861e-05 -1.6013e-05 
119 1 24.1079 46.102 3.82396 -0.144312 -3.32584 -1.26155 8.03693e-06 2.40065e-05 -9.43287e-06 
120 1 34.589 44.0749 23.7396 3.38563 0.77883 1.88437 -1.59245e-05 5.04359e-05 -5.29339e-06 
121 1 32.1969 31.3146 12.6305 1.77182 1.13088 0.786212 6.43485e-06 6.77477e-07 1.9166e-07 
122 1 11.8426 10.4943 8.66122 0.43035 -0.507452 0.234013 1.56516e-05 1.3723e-05 4.75583e-06 
123 2 33.1164 39.505 39.24 -0.469507 0.372231 0.22684 1.91265e-06 1.23915e-05 -7.20587e-06 
124 1 28.5244 8.90027 32.0391 0.55584 3.52957 1.40967 -3.68783e-05 2.32841e-05 -1.36049e-05 
125 2 18.2978 15.255 20.8871 2.44971 -1.11914 -0.00833604 -5.03957e-06 -5.86365e-06 7.46072e-06 
126 1 48.0659 51.9406 24.7941 -1.21186 0.679798 1.7526 -5.75857e-06 -9.34173e-06 -2.16913e-05 
127 1 43.066 30.6761 22.9204 2.962 -0.270744 1.09866 -2.84328e-07 -2.62582e-05 -4.44785e-07 
128 1 24.6785 16.1646 32.675 0.380648 0.345745 -2.45788 -1.77745e-05 3.00392e-06 -1.77937e-05 
129 1 10.1943 12.056 33.4672 -0.989067 -3.44111 -1.06007 -1.31633e-06 -2.42946e-05 5.59284e-05 
130 2 34.3875 38.993 45.7072 -0.474628 -1.5793 1.9046 5.43511e-06 1.07995e-05 -1.42897e-05 
131 1 6.19586 6.32736 40.7167 -2.14149 2.77757 2.94586 2.51479e-05 -5.43235e-06 -1.13586e-05 
132 1 0.586984 8.33835 22.35 1.19443 0.908101 5.06193 5.00525e-05 -0.000138495 -1.13898e-05 
133 1 34.1532 22.5167 39.2744 -1.24652 0.479798 -1.01536 1.91143e-05 5.2117e-06 -6.68936e-06 
134 2 16.4218 36.3243 15.3219 -1.33651 -1.62747 -0.624083 -8.03808e-06 1.84873e-05 -1.66179e-05 
135 1 6.38192 21.8309 4.9852 2.90072 -0.674951 -0.978949 -4.7199e-06 -7.23941e-06 -3.5102e-06 
136 1 10.078 37.4951 49.9722 -2.499 0.320446 -1.56972 1.95712e-06 1.36231e-05 4.54163e-06 
137 1 36.5059 40.5006 6.83803 -1.36872 -1.49728 2.78071 1.92226e-05 -5.60529e-06 -1.43742e-05 
138 1 10.7598 29.1024 6.96922 -0.983941 0.0882048 -0.223298 5.64392e-06 8.92423e-06 -7.74616e-06 
139 1 37.9123 1.07212 17.1738 -1.96208 -1.13933 -0.557416 9.92218e-06 -5.94375e-05 -2.76422e-06 
140 2 48.8434 46.3286 13.2078 -4.11294 0.756288 -2.81779 -4.47455e-07 5.2642e-07 -9.22414e-07 
141 1 46.7377 5.16421 25.8659 -0.347107 2.45604 3.13201 -1.1428e-06 -5.34997e-06 7.15087e-06 
142 2 44.1451 -0.360397 15.1279 1.28122 -0.152419 -0.618447 4.5728e-05 1.77826e-05 -1.02815e-05 
143 1 21.0357 49.0444 18.6886 -2.94714 1.68985 0.21798 -1.17175e-05 2.24705e-05 -8.70544e-06 
144 2 4.41092 15.84 31.2064 -0.423772 -0.0163671 0.678224 3.10486e-05 -6.12241e-05 9.43551e-05 
145 1 30.5612 51.8259 40.9457 1.68931 -2.98083 2.53282 -1.46496e-05 5.20459e-06 4.92083e-06 
146 1 43.822 18.1169 25.4059 0.389442 -1.72126 2.35485 1.69765e-05 -2.56936e-05 3.0692e-05 
147 2 6.53231 21.7593 2.35052 0.822769 0.42167 -1.48473 -1.74589e-06 6.86899e-06 -2.87568e-06 
148 1 9.19702 51.0289 2.72332 -0.131129 2.20929 6.22151 2.18068e-06 3.43071e-06 -1.90335e-05 
149 1 47.3031 10.9759 34.3394 -2.68466 0.0126056 2.17702 -1.19001e-05 -2.09337e-05 -7.26591e-06 
150 1 34.9638 5.8227 41.416 -2.19728 2.37686 1.79241 7.0972e-06 -6.17713e-06 -2.73536e-05 
151 1 47.5465 35.999 12.454 -1.41002 4.29084 2.4944 -1.12141e-05 -2.19885e-05 -1.11296e-05 
152 1 25.8621 5.2034 23.624 -5.38856 0.234198 4.02561 -1.12296e-05 2.24704e-05 3.18827e-06 
153 1 2.19543 25.801 30.6309 -0.708485 0.158153 0.395223 -1.68802e-05 -8.55046e-05 2.20138e-05 
154 2 37.4084 21.081 -0.117315 1.02359 0.0407733 0.506467 8.36813e-06 1.04695e-05 -1.51521e-05 
155 1 48.5017 19.4384 9.58679 0.841313 -0.866512 0.570935 1.53129e-05 -1.2333e-05 -2.33603e-06 
156 1 16.9589 22.9507 5.41126 -0.650226 -2.3771 0.0780228 3.36707e-06 2.28051e-05 2.09444e-05 
157 1 10.8538 42.1845 9.40028 4.51196 -0.513944 -2.02037 -6.3003e-06 4.79209e-06 -1.9808e-06 
158 1 25.7766 21.0143 1.26846 -5.33578 -4.7237 1.1223 1.34866e-05 1.06753e-05 8.75885e-07 
159 2 29.6078 27.0809 29.6213 2.22547 1.35541 -0.151741 3.21108e-06 2.88381e-05 -2.76366e-06 
160 1 33.6082 0.739856 11.0342 -2.65266 -1.54231 -2.38621 -1.17858e-05 1.09194e-05 2.63015e-06 
161 1 42.6354 8.96591 12.3521 -1.30085 0.881497 -0.49736 7.24018e-06 -1.39668e-05 -1.19987e-05 
162 1 13.0323 20.8881 28.2903 1.41428 -2.76095 0.629816 -6.7488e-05 7.27278e-05 3.6369e-06 
163 1 50.0515 24.2367 4.74357 1.88726 0.892174 1.69944 -2.10138e-05 5.85845e-06 2.58312e-06 
164 1 7.3753 47.4929 39.8914 2.81707 1.11373 2.58387 -5.36111e-07 3.32307e-06 -1.75282e-06 
165 1 26.4825 32.4225 32.4607 -0.343732 -2.07293 1.78793 1.66461e-05 3.51723e-07 -1.48984e-05 
166 1 15.5363 42.3798 38.0195 -2.04848 -3.73115 3.77664 2.82315e-06 1.11569e-05 -1.29626e-05 
167 1 29.5429 45.4107 37.1435 1.16783 0.95699 -0.794282 -8.64566e-06 7.03661e-06 -8.70455e-06 
168 1 20.8478 17.7124 26.8688 0.629266 -0.275666 0.149804 -2.24506e-05 4.78005e-05 -9.81697e-06 
169 2 46.6828 8.86064 48.8563 1.07065 -0.161622 -0.166443 2.74954e-05 -6.3648e-06 -8.33269e-06 
170 1 31.289 0.153211 15.7132 1.05014 -0.430269 1.6952 -1.69873e-05 2.15366e-06 -1.0484e-06 
171 1 7.73198 8.1045 35.9071 3.37112 1.36247 1.26675 2.88814e-05 -3.21094e-05 2.59851e-05 
172 1 49.3826 14.2656 42.8212 -1.96405 -3.71893 3.19125 -2.80792e-05 -4.65638e-05 -2.44195e-06 
173 1 7.49717 11.7023 5.69489 -0.932963 1.08861 -0.726897 1.62082e-05 3.04253e-06 2.2981e-06 
174 1 11.6118 46.5006 29.617 -0.245334 -0.0787138 0.0749674 2.16969e-06 -1.58718e-05 -9.74659e-06 
175 1 29.9794 -0.579813 6.22278 -1.70281 3.00515 0.804985 1.1145e-06 -2.01482e-06 3.79349e-06 
176 1 3.9015 42.3257 32.7741 0.387279 2.57791 -2.36364 -6.11551e-06 -2.00713e-05 6.05912e-06 
177 1 38.7951 29.8411 12.7333 -0.0961483 1.37506 -4.98286 4.68702e-06 1.15615e-05 8.42359e-07 
178 1 15.3244 17.715 13.9025 3.64897 -3.30986 1.50665 -5.12145e-05 -1.08819e-05 2.2083e-05 
179 2 8.43586 20.6556 40.4979 -0.587971 0.987783 -0.586765 2.26525e-06 -1.66779e-05 3.93419e-06 
180 2 23.4814 49.9047 12.9707 1.89535 0.191691 0.701794 4.74591e-06 6.11577e-06 -1.14971e-05 
181 2 35.4608 51.5908 13.2305 1.43804 -1.57288 -2.49851 -2.19793e-05 8.19622e-06 -5.4099e-06 
182 1 8.92104 4.44863 23.8934 -1.22486 1.21578 0.95842 3.13352e-05 -3.21862e-05 -4.66265e-06 
183 1 18.2947 33.9391 30.9129 1.06319 -1.87962 1.40102 -5.25978e-06 3.52141e-06 -9.62762e-06 
184 1 3.03842 1.1598 46.6729 2.40497 -1.72981 -3.97113 2.13731e-06 -2.48211e-06 -1.866e-05 
185 1 35.6175 7.24863 45.2439 0.05347 -1.99186 2.66064 -3.44508e-05 1.83375e-05 -2.77572e-05 
186 2 38.1006 51.6621 32.4554 1.71823 1.1419 -1.05663 -1.59403e-05 -8.98137e-07 8.98933e-07 
187 1 32.4803 40.5017 43.7486 -1.33541 1.8652 0.943682 -1.11693e-06 1.10081e-05 -1.38237e-05 
188 1 24.7666 22.5233 18.4701 1.37764 -0.847449 -1.74398 5.55305e-06 -5.28575e-06 -9.93134e-06 
189 1 3.81771 15.9068 9.18769 -0.960376 -3.46185 1.64247 5.13103e-08 -1.26542e-05 -3.36055e-05 
190 1 24.4314 43.0451 26.9895 2.17618 0.0992303 0.797863 -4.05429e-06 -3.61606e-06 -2.54324e-05 
191 1 22.9981 29.9441 22.031 -2.03039 1.43117 -0.284545 -8.50266e-06 1.32044e-05 8.3022e-06 
192 2 32.6332 41.3635 46.2881 0.488009 1.46549 0.0254707 -1.65134e-06 7.79803e-07 -2.05374e-05 
193 1 22.1923 14.6386 46.8208 -1.62822 0.156187 -0.0763561 3.17718e-06 7.03165e-06 -9.67241e-06 
194 1 38.7316 41.2726 6.27724 -0.350259 -1.68723 -1.18562 -4.59774e-06 3.79802e-07 4.31408e-06 
195 1 10.6593 28.1388 45.674 0.356775 0.406983 1.30366 6.8432e-06 -3.2819e-06 1.47994e-05 
196 1 30.0291 31.1903 28.3021 -0.00926564 2.92792 -1.74165 2.08197e-05 1.8063e-06 -1.88927e-05 
197 1 23.4854 22.0738 13.2174 -4.25776 -0.774488 -0.175543 1.49628e-05 1.38227e-05 1.18669e-05 
198 2 24.1849 27.9415 10.4742 0.912627 -1.04489 0.428205 1.70195e-05 9.28388e-06 1.01335e-05 
199 1 43.3769 6.12265 6.61036 -3.47158 3.7929 0.248025 -1.90864e-06 -4.93472e-06 3.41678e-06 
200 1 37.812 11.8888 39.8219 2.04025 2.65807 0.85671 9.98702e-06 -7.58272e-06 1.98148e-05 
201 1 8.61375 23.5732 22.3555 -0.983362 -1.21914 2.57944 0.000134374 0.000130492 -4.02384e-05 
202 1 23.3787 17.1831 41.0887 0.0257292 -1.17231 0.674719 1.72153e-05 8.4874e-06 -1.61686e-05 
203 1 26.6808 14.6622 4.43791 -1.53178 -0.439436 1.49829 8.5047e-06 4.76094e-06 1.33516e-05 
204 1 44.0188 51.2676 25.7343 1.90082 2.30884 2.72382 8.24788e-06 -1.73253e-05 -1.40399e-05 
205 1 51.102 43.9565 20.059 3.2567 -0.936809 1.23854 -1.10092e-05 -1.36814e-05 -2.66925e-06 
206 1 19.532 25.908 31.5334 -0.882678 0.697282 2.69883 -1.67494e-05 2.39188e-06 2.22983e-05 
207 2 32.1556 23.9528 48.7302 0.537778 0.976934 -1.13965 -1.59497e-06 -4.25316e-06 -1.24421e-05 
208 1 5.55272 32.2351 43.0995 2.04411 0.0295381 -0.896452 1.61731e-05 3.56462e-06 3.35277e-06 
209 1 13.8457 13.2824 25.1351 -1.47301 -0.752071 -4.03558 -1.0516e-06 -2.23257e-05 -1.34346e-05 
210 1 45.3217 43.2822 -0.293754 2.55617 1.46779 0.798786 -3.84609e-06 -7.82499e-06 -5.50216e-06 
211 2 9.84538 32.0152 4.40824 -1.77076 -0.372092 -0.507657 6.25439e-06 3.57071e-06 7.9402e-06 
212 1 23.2812 12.8288 16.3899 -1.50924 1.23843 -1.07079 -2.89806e-05 4.61925e-06 -2.80215e-06 
213 2 32.5231 44.0446 15.249 -0.386458 1.18842 -0.495162 -1.82042e-06 2.62364e-06 -3.28881e-07 
214 1 9.68653 47.8068 39.4959 -0.133617 -1.47329 -0.219043 1.136e-06 -1.22101e-05 -8.72707e-06 
215 1 20.7066 42.2632 12.5567 0.113118 -2.22038 -1.08101 1.94187e-05 -3.84687e-06 3.26753e-06 
216 1 12.3541 36.7871 -0.731334 -1.87296 0.774179 5.26364 -3.0584e-06 6.60054e-06 -4.9657e-06 
217 1 22.4287 20.6009 14.9159 0.986376 -0.635305 1.68604 -9.92856e-06 -4.26948e-06 -4.34052e-06 
218 1 40.6452 40.5277 31.3169 1.86745 -0.928228 -2.50639 3.64284e-06 -1.05511e-05 -2.09863e-05 
219 1 13.1955 25.8259 22.448 0.449702 -1.35014 1.70086 -1.00362e-05 2.54175e-05 -2.53668e-05 
220 1 25.2826 -0.408034 48.5648 1.88705 0.0102834 -0.71415 -7.93499e-06 4.98189e-06 -1.83279e-05 
221 1 14.3026 33.1129 28.8715 0.290823 0.190498 -0.558066 -2.48133e-05 -1.58482e-06 2.22833e-05 
222 1 14.9771 37.6832 2.35493 -1.24493 -1.35621 1.81501 -4.26521e-06 1.34606e-05 -1.18873e-05 
223 1 10.1246 5.24919 41.1779 1.29355 0.777357 -0.177685 -7.24848e-06 -1.77297e-05 2.49767e-05 
224 2 17.4721 52.0675 34.6214 -0.210908 0.668227 -0.164732 -8.6526e-06 3.91862e-05 1.18046e-05 
225 2 22.7147 14.5916 21.6086 -0.810233 0.00511497 2.35804 -2.21054e-05 -7.44836e-07 -4.44403e-06 
226 1 35.7833 48.4894 1.83604 0.281454 4.6765 -4.21863 4.97064e-06 8.99811e-09 -5.61159e-06 
227 1 50.2822 4.73165 44.5758 0.475407 -0.0360492 1.16609 -1.10086e-05 1.60942e-06 -2.27344e-06 
228 1 47.5824 11.7847 6.98702 -2.4739 -2.85941 -1.55905 -1.11459e-05 -2.22588e-05 -5.46202e-06 
229 1 21.822 25.0483 31.4657 -1.40635 0.376461 0.779962 -1.99291e-06 7.17545e-06 -9.0372e-06 
230 2 2.33378 17.5296 1.99 -0.931369 -2.7093 0.701927 1.24134e-05 1.29005e-05 2.01721e-06 
231 1 11.5519 6.38642 33.4573 -0.0031331 0.680595 -0.73939 1.66861e-05 -4.8557e-05 1.04788e-05 
232 1 29.6881 4.13936 37.7844 2.95967 0.831056 -2.08852 2.08873e-06 1.24987e-05 -1.39877e-08 
233 1 16.33 46.7995 19.6693 0.294655 1.88755 0.470528 -2.00648e-06 2.27206e-06 -1.2461e-05 
234 1 50.7105 14.3102 21.5028 -0.223897 0.688396 -2.29173 3.74334e-05 -1.92995e-05 -2.35913e-05 
235 1 13.5515 28.3794 6.75221 -1.67056 3.77046 0.43469 5.45797e-06 8.17395e-06 -4.65882e-06 
236 2 0.0662671 40.0678 32.3337 1.40483 1.84231 1.115 6.30842e-06 -2.1041e-05 -1.04994e-05 
237 2 34.0683 21.0399 34.3228 -1.4701 0.883059 0.904872 7.65297e-06 -4.94816e-06 -1.4018e-05 
238 1 19.8048 46.2379 10.6135 2.58579 -0.846421 -1.12389 -4.2987e-06 -6.41073e-06 -1.44993e-07 
239 1 28.5697 45.7374 18.1735 -3.87475 -2.35139 1.12082 1.0258e-05 1.03915e-05 5.98385e-06 
240 1 22.2036 30.2098 39.9955 -3.08438 -2.46588 1.76591 4.74751e-06 -3.49102e-06 7.22669e-06 
241 1 5.56903 4.18351 21.3529 0.829973 3.30343 -0.322562 -1.92971e-05 -3.34688e-05 -1.29552e-05 
242 2 39.0793 43.5803 5.66972 0.219197 -0.897921 0.538936 1.55304e-05 -5.45665e-06 1.15506e-05 
243 1 0.367466 32.1207 45.64 1.55889 -1.82594 -0.494467 -8.68827e-06 -8.74988e-06 1.31702e-05 
244 1 49.3027 34.1687 40.0949 -2.98703 -0.662267 -1.86944 -2.03529e-05 2.13824e-06 1.30391e-05 
245 1 42.48 28.1462 8.24044 -3.43127 -2.03397 -4.24912 1.44992e-05 -1.31985e-05 1.14015e-05 
246 1 10.5424 35.8835 0.829715 -2.24714 -0.340312 -0.400274 -1.08477e-05 3.94905e-06 2.69529e-10 
247 2 19.9963 4.69397 6.77071 -1.11914 -2.03544 0.747355 -1.14366e-05 1.8363e-06 -2.41705e-06 
248 1 22.0322 8.57263 36.7163 -1.63827 0.856307 -1.34307 -3.74959e-06 1.04369e-05 5.48747e-06 
249 2 40.7448 24.1035 1.04041 -1.43356 -0.066615 0.00273474 1.46116e-05 2.05628e-05 5.60338e-07 
250 1 31.0656 11.5987 -0.689652 -1.3833 0.477594 3.55929 1.95298e-06 -1.14112e-05 4.49372e-05 
251 1 36.751 9.50302 48.1798 0.423012 -1.25289 -2.6014 6.44139e-06 5.12998e-06 1.05569e-05 
252 1 4.46556 21.5535 28.1322 -0.876866 1.3216 -2.27034 1.15376e-06 -0.000116261 0.000200921 
253 1 1.99909 47.3916 20.9151 1.79242 1.85686 -0.063303 5.65914e-06 -2.92612e-05 -2.593e-06 
254 1 18.849 18.1723 48.1653 -3.75416 0.881138 -0.21057 1.95865e-05 -1.81938e-06 8.60554e-06 
255 1 31.2922 3.92544 35.6911 -5.37909 0.436232 -3.00994 3.23805e-06 -1.63957e-05 -2.32229e-05 
256 1 22.82 31.8511 20.547 1.78778 -0.489949 -0.486627 1.12079e-05 9.22467e-06 -4.41975e-06 
257 1 28.2329 51.983 47.3027 1.1016 -0.624385 1.69311 -6.19093e-06 4.10895e-06 -1.27559e-05 
258 1 40.6952 12.448 22.6803 0.19293 0.799817 -0.830763 2.13145e-05 -2.87587e-05 -3.1896e-05 
259 1 27.9813 15.6177 38.121 2.85755 0.0543708 1.54688 -2.51512e-05 2.51142e-06 -7.68804e-06 
260 1 43.7537 6.66141 21.0335 0.00778737 -1.9567 3.78503 -2.09339e-05 2.92645e-05 -5.24488e-05 
261 1 42.5019 45.0558 47.7895 1.30648 4.32537 1.03961 5.54244e-06 7.3644e-06 -2.08106e-06 
262 1 19.3507 0.66895 25.9497 0.662923 0.0759753 -0.686616 -1.07159e-05 6.38071e-08 -7.83237e-06 
263 1 22.3366 17.4292 21.3278 -0.158766 -3.63214 -1.69333 -2.01768e-05 1.01078e-05 -1.10694e-05 
264 1 15.4371 44.5485 36.3916 2.57041 1.27934 -2.02511 6.52396e-06 2.96015e-06 5.50442e-08 
265 1 16.6516 32.025 41.7571 -2.31364 -3.46019 -1.56323 1.43421e-05 1.64569e-05 -9.79427e-06 
266 1 7.01474 29.5625 21.6122 -0.720334 0.0354281 -0.89363 -2.18931e-06 1.96704e-05 -3.26313e-05 
267 2 34.9781 30.6867 2.11514 0.499863 0.57042 2.13724 1.07776e-05 4.44383e-06 1.1467e-05 
268 1 36.9631 31.5086 35.1506 -1.25776 2.91583 -2.11761 -1.32363e-05 -1.60411e-06 -7.04566e-07 
269 1 19.8747 20.4506 33.8993 0.901528 0.583729 1.22948 1.45015e-05 6.48343e-06 1.48385e-05 
270 1 10.0745 3.41163 48.9496 2.00297 -0.418562 -1.92093 -3.7791e-06 -8.7702e-07 -5.29391e-06 
271 2 21.8853 44.5487 30.888 -2.48545 -1.46517 0.121717 -3.2662e-05 7.04334e-06 -7.63025e-06 
272 1 43.9338 2.10654 29.666 -0.356682 1.10608 1.5583 -3.18464e-05 -9.96658e-06 -1.068e-05 
273 1 22.411 32.5087 11.8583 -0.536189 -2.92888 -2.9722 3.82322e-06 1.17242e-05 -9.63962e-06 
274 1 33.935 1.44941 21.7723 0.334126 -1.48993 1.8816 6.02094e-06 1.69679e-05 -6.0178e-06 
275 2 41.0334 39.0098 43.6428 1.50488 0.235596 -1.24303 -1.08244e-05 4.25851e-06 -4.35698e-06 
276 1 41.8135 24.14 28.9413 1.7579 1.8435 0.831042 2.72115e-05 -4.11497e-05 -2.53697e-05 
277 2 12.3409 17.4648 30.6086 -0.215902 0.570056 -1.69799 -5.92922e-05 2.05655e-05 3.6451e-05 
278 1 29.2285 30.2 23.5041 -4.64103 1.72004 -2.37616 3.83633e-05 -1.68001e-06 -3.63154e-06 
279 1 7.79025 14.008 49.4562 -1.72897 2.83819 -4.5912 1.42051e-06 8.32512e-07 2.09316e-05 
280 1 24.8632 50.1953 0.801567 4.00448 1.13779 1.45741 -5.21375e-06 6.66941e-06 1.67553e-06 
281 2 15.7058 9.1674 4.18176 0.814825 0.264204 1.11833 1.09485e-05 4.03181e-06 8.4764e-06 
282 2 22.6804 52.0924 27.2959 -0.698622 -0.8769 0.963149 -1.45486e-05 9.705e-06 4.52853e-06 
283 1 50.0454 23.9997 22.8213 3.53472 -3.24799 -2.2106 3.61621e-05 -3.75658e-05 -1.19252e-05 
284 1 42.0657 43.5489 29.1783 -0.808532 -0.869531 -0.588338 -1.2771e-05 2.23502e-05 5.83766e-06 
285 1 43.6505 34.5677 33.4931 -0.973604 2.30767 0.206534 -1.74567e-05 -1.18611e-05 -3.81032e-06 
286 1 23.4462 15.0406 12.0112 -2.2882 1.11111 -3.59804 -4.24953e-06 -6.46318e-06 -2.54067e-06 
287 1 40.7234 34.2455 24.3883 0.619568 -0.579974 1.40903 1.35129e-06 -4.39111e-06 -3.90227e-06 
288 1 9.78439 2.88316 40.6928 -2.41692 1.01994 1.45035 -1.97832e-06 -2.12129e-05 -7.8472e-06 
289 1 27.8916 36.5579 15.7917 -0.562518 -4.48199 -0.534715 5.66183e-06 5.96434e-06 -2.40076e-06 
290 2 0.340863 42.5754 21.8879 0.347907 -1.06502 -0.155312 1.13601e-05 -2.22153e-05 -2.78287e-05 
291 2 6.87942 27.0637 38.3584 -0.78718 1.04274 0.902882 1.76058e-05 -4.13347e-05 4.2357e-05 
292 1 28.9957 51.6258 24.7375 -0.391629 -2.87396 -4.49956 -1.66314e-05 3.59444e-05 -1.44183e-05 
293 1 25.4901 11.3429 37.7303 1.11129 0.0337457 -0.413117 9.01421e-06 2.42356e-05 5.29467e-06 
294 1 13.1549 26.0505 35.332 -0.369947 -2.10063 -0.2995 1.23587e-05 4.51203e-05 1.32318e-06 
295 1 0.380808 52.5819 29.1127 -4.78233 -1.03351 -1.30328 -3.39356e-06 -1.18407e-05 -2.81631e-06 
296 1 42.1722 33.0901 22.46 -1.03536 -0.81157 -0.174691 1.16746e-05 -4.20313e-06 -2.20202e-07 
297 1 13.1015 48.1498 30.7402 -1.57289 -1.82142 1.21305 0.000199167 7.31779e-05 -0.000242785 
298 1 14.1149 49.8883 46.4135 -2.26551 4.22275 2.72011 8.60315e-06 9.72891e-06 -6.94662e-07 
299 1 21.1687 6.81822 33.3059 -5.20079 -0.0272177 0.930044 -5.60442e-06 1.54516e-05 -1.25176e-05 
300 1 39.2086 1.88781 43.0682 4.24403 -1.40169 -0.168655 -6.91324e-06 -6.71156e-06 -9.71814e-06 
301 1 38.85 4.12344 13.6404 0.88352 -2.01576 -2.01406 -1.68616e-05 1.09852e-05 6.28665e-06 
302 1 44.1556 38.8994 28.9374 -0.234387 -2.74493 -0.209744 -2.58303e-05 5.56116e-06 -7.01924e-06 
303 1 21.9389 24.4653 34.7863 0.153102 -2.95143 -1.14587 7.19027e-07 7.93374e-06 5.81082e-06 
304 1 31.031 25.0287 30.7281 0.790471 -1.77764 2.69039 2.18255e-05 -1.64959e-06 -5.94938e-06 
305 1 21.4189 51.1271 34.8006 -3.27317 0.221556 2.96518 -3.20989e-06 5.39361e-06 -5.51432e-06 
306 1 16.8166 5.81311 37.2687 -1.64091 -4.06811 -1.76484 8.21124e-06 -1.12025e-05 -3.48422e-07 
307 1 9.66781 6.00997 15.4864 1.64181 -3.71594 -0.586596 3.0959e-06 3.43304e-06 5.686e-06 
308 1 46.4599 39.8648 40.7401 -0.596935 -1.66237 3.36024 -5.04723e-06 -2.32311e-07 -1.54472e-06 
309 1 5.72568 29.8604 34.2366 1.85639 -1.52747 0.346879 2.89209e-05 3.3727e-05 6.58393e-05 
310 1 28.1913 23.3513 21.5433 -0.505521 0.825229 1.47228 -6.72949e-06 1.66614e-05 -4.16252e-06 
311 1 44.3513 28.6509 34.8016 -3.092 1.2137 -0.565518 2.6801e-05 1.143e-05 2.1269e-06 
312 1 35.5305 0.675802 16.0698 -6.07851 -0.370271 -2.00797 8.45199e-06 7.91507e-06 1.07806e-05 
313 1 50.8992 7.4132 9.44202 -1.72884 1.04171 -0.760466 -6.96616e-06 -2.87466e-06 -1.73002e-05 
314 2 6.46206 -0.246475 28.1897 -0.210755 -1.16956 -0.112007 -4.08512e-06 -2.73808e-05 -2.15381e-06 
315 1 8.75027 23.5974 14.8747 -0.527433 -0.234219 2.26375 2.10931e-05 3.0714e-05 1.54015e-05 
316 2 48.9246 5.1506 39.328 -0.921012 1.76011 -0.0355683 -8.39408e-06 3.66059e-06 1.51257e-05 