ITEM: TIMESTEP
44153654
ITEM: NUMBER OF ATOMS
11664
ITEM: BOX BOUNDS pp pp pp
0.386628 56.5804
0.386628 56.5804
0.386628 56.5804
ITEM: ATOMS id type x y z vx vy vz fx fy fz 
1 2 10.3426 31.3176 1.48536 -0.688952 0.60831 0.0515918 -5.00635e-07 -3.17219e-06 2.45184e-05 
2 1 42.4229 0.444244 5.49104 0.682228 -0.966762 -0.0116125 4.89981e-06 -1.38917e-05 3.02739e-05 
3 2 55.8736 13.3778 56.0984 0.164604 1.28583 -1.35147 -1.91925e-05 2.26171e-07 2.03591e-06 
4 2 15.2121 7.74374 36.5675 -0.562447 -1.65223 -0.223297 -1.56897e-05 4.00593e-06 6.66805e-06 
5 2 17.0987 23.911 21.5201 0.123623 -0.68428 0.909747 -6.93572e-06 7.62545e-06 3.16885e-06 
6 2 51.6668 13.6492 19.2897 -0.350298 -0.373917 -0.461942 2.36023e-05 -4.76666e-05 6.51199e-05 
7 1 23.773 53.8742 43.881 -0.316993 -0.304593 -1.69957 1.16519e-05 1.15314e-05 8.55226e-07 
8 2 1.81722 0.928179 10.1456 0.454299 0.0966584 -1.47526 2.93749e-05 1.08069e-05 2.30262e-05 
9 2 47.505 55.5051 36.6013 -1.68687 -1.37869 -0.601677 -3.08718e-05 -2.99326e-06 -1.68574e-05 
10 1 44.3699 17.2751 21.3475 -0.565948 0.519242 1.11527 -1.4588e-05 -1.22461e-05 -6.665e-06 
11 2 34.4612 0.465037 21.0515 -1.08736 -0.131846 0.339128 3.77576e-05 -4.43609e-06 4.67612e-05 
12 1 7.95945 37.6004 36.9188 -1.21695 3.64043 -5.7904 -1.35211e-05 5.16137e-07 2.60598e-05 
13 1 45.8206 37.3109 36.5513 1.93931 1.36585 1.68496 1.33951e-05 -6.47839e-06 -7.08912e-06 
14 2 9.65962 54.1487 9.58328 1.4607 -0.224836 -0.433599 7.79656e-06 2.07411e-05 -1.58469e-05 
15 2 56.4365 12.4982 13.7956 -0.933615 2.37749 0.284734 -1.74834e-05 -2.53755e-05 -5.60456e-06 
16 2 8.03146 46.0371 28.8125 -0.404113 -0.0784433 1.03747 3.66233e-06 1.32741e-05 2.1328e-05 
17 1 29.4047 10.2664 28.311 -3.29105 -0.768205 0.349009 -4.39607e-06 -3.81681e-06 -2.7184e-05 
18 1 8.97341 35.2788 17.3601 0.276866 0.36849 0.553324 -1.87415e-06 6.21429e-06 -1.02836e-06 
19 1 14.9075 50.839 53.3817 -1.53466 -1.08131 -3.14697 7.69437e-06 1.85357e-05 6.4227e-06 
20 1 54.8233 54.4996 12.0977 -2.5253 -0.315984 0.153202 1.43886e-05 2.62452e-06 2.07625e-06 
21 2 29.4055 36.3734 7.83 -2.56796 -0.947985 -0.870076 2.11084e-05 -1.24237e-06 -2.27558e-05 
22 2 14.4972 5.35316 38.418 1.0495 1.20624 -0.0119903 4.30972e-06 -9.88761e-07 -1.33013e-06 
23 2 17.03 14.201 29.5595 2.37842 0.970941 -1.43939 7.39772e-06 1.09593e-05 -1.43087e-05 
24 1 24.4074 10.5796 37.8922 -1.2717 -3.78248 1.38585 1.32192e-05 -1.29976e-06 1.80858e-05 
25 1 21.8256 4.46747 50.3631 2.82793 2.81176 1.73626 3.63161e-05 4.17662e-06 1.33554e-05 
26 1 15.6118 22.1235 30.4212 3.95299 -2.73292 0.884417 -2.25595e-05 2.1174e-05 5.06537e-06 
27 2 41.9843 48.2126 46.4888 -1.49703 -1.13371 1.44161 1.20292e-05 1.63634e-05 1.53622e-05 
28 2 25.9982 5.89747 13.4125 0.659336 0.943338 0.791574 -1.3891e-05 3.59621e-05 4.48596e-05 
29 2 33.2397 40.7965 48.7592 3.09215 1.79049 0.299584 7.76466e-06 -1.69329e-05 -1.74254e-05 
30 1 17.8657 25.0143 7.83545 0.655298 -4.75239 -3.18076 -1.66185e-05 -1.37931e-05 -6.42796e-06 
31 2 38.926 16.1667 38.0998 0.474616 1.38564 -1.51114 -1.16464e-05 6.67793e-06 1.34251e-05 
32 2 15.9765 9.83278 40.9513 0.404003 1.44868 -0.447573 -2.17951e-05 1.50662e-05 -6.61531e-06 
33 1 43.6246 36.7154 43.7131 2.21238 0.576815 0.172413 -6.01065e-06 8.88266e-07 -6.64122e-06 
34 2 25.6359 34.3393 48.8539 -0.0611188 -1.25197 -2.75448 1.87122e-05 -9.0342e-08 3.15398e-06 
35 2 4.28601 8.55393 27.31 -1.95136 0.276079 -0.434264 5.36914e-05 -3.21493e-05 -2.10598e-06 
36 2 25.7622 51.399 40.749 -1.91323 0.728387 -1.23974 -3.49177e-06 1.3971e-06 4.77837e-06 
37 2 44.2629 37.6531 41.3883 2.27637 3.33269 -0.772675 -2.33576e-06 -6.87577e-06 -4.57348e-07 
38 2 56.532 3.94883 6.67274 0.918417 1.00276 0.374777 1.82599e-05 4.39257e-07 -1.50637e-06 
39 1 12.6911 16.0031 40.1204 2.11602 -2.31768 -2.42974 -4.84278e-06 -1.33191e-06 -9.87724e-06 
40 2 20.8097 31.4568 21.3326 1.01312 -0.653942 0.15192 -2.49374e-05 3.26467e-06 4.70806e-06 
41 2 12.8245 21.041 25.7458 -2.27838 -2.01706 0.271303 6.79088e-07 1.81581e-05 -9.06102e-06 
42 2 30.2797 12.4654 49.6532 -0.785295 -0.638573 0.0449691 4.37167e-06 2.13759e-06 7.09997e-06 
43 2 5.51484 5.25415 24.329 2.21309 0.913488 0.15137 6.23161e-07 4.09276e-06 2.58544e-05 
44 1 31.0869 22.9246 38.8647 0.363451 2.62727 -0.662193 5.52103e-06 -1.27946e-05 -1.78771e-05 
45 1 10.8879 49.7385 5.68243 1.99738 -0.116153 0.487645 9.42424e-06 2.31133e-05 1.56025e-05 
46 2 45.8112 55.1382 16.305 3.22493 0.329979 1.70122 -7.87305e-07 -1.62879e-05 -2.2137e-05 
47 1 43.9546 22.1732 49.655 -0.780126 -2.67145 1.43761 -2.73864e-06 1.26949e-05 -2.93134e-05 
48 1 22.8841 9.95157 27.5515 2.79207 -0.914323 0.418552 -1.70332e-06 1.28134e-05 2.90896e-05 
49 1 4.31461 48.3437 33.8218 1.17197 2.13379 -1.98256 -1.3356e-06 -2.10683e-05 1.76527e-05 
50 2 44.8077 42.2064 20.201 -0.477519 0.533208 0.547198 1.2005e-05 2.4295e-06 -1.89304e-08 
51 2 37.748 17.0112 51.6637 -0.563874 0.693686 0.216195 4.44823e-06 2.27892e-05 -3.30894e-05 
52 2 31.9995 26.2349 52.9601 2.46368 -0.687571 1.77238 -8.20198e-06 -7.55668e-06 -1.43177e-05 
53 1 32.0164 24.0736 43.9173 2.30072 4.42708 2.30968 -9.65831e-06 -4.76144e-06 -6.30278e-06 
54 2 0.681698 28.8806 22.8835 0.741043 0.560097 0.902197 3.26987e-06 1.94516e-05 -1.55164e-05 
55 2 40.0747 10.9077 5.17633 -0.276489 -2.02156 -0.673365 -2.49498e-06 4.09186e-06 -1.61883e-06 
56 2 1.45646 48.7933 33.9482 0.833272 -1.27805 -0.492925 3.70361e-07 -1.85729e-05 2.87252e-05 
57 2 18.2702 17.9146 23.2918 -1.96881 -0.855817 0.642069 -1.42471e-06 1.15561e-05 1.21083e-06 
58 2 10.6693 52.8152 12.1739 -0.259534 -0.091451 0.673811 1.45122e-05 -4.11131e-05 -5.13068e-06 
59 2 21.9741 53.0465 15.8694 0.758708 1.53547 -1.12432 1.51782e-05 4.76192e-06 -5.78258e-05 
60 1 29.9333 38.3578 25.3327 -0.610089 -0.121025 0.539765 -1.91692e-05 -1.58754e-05 1.11216e-05 
61 2 21.4385 12.2144 21.1933 -0.376263 -0.0806274 -1.18081 4.96661e-05 1.01202e-05 -3.68197e-05 
62 2 25.0842 30.1504 37.5612 -0.748817 0.2381 0.21711 -2.1745e-05 -1.76478e-06 7.02773e-06 
63 2 38.7608 20.8398 49.4916 -1.19627 -1.22826 2.03694 -1.05609e-05 -2.00128e-06 2.90408e-08 
64 1 47.1331 28.1277 2.64988 1.9853 -3.18099 2.12122 1.00787e-05 -1.68288e-06 3.55734e-05 
65 2 34.0661 33.2588 44.7223 -1.26392 1.02579 0.89299 3.44966e-07 -9.94384e-06 -1.22262e-05 
66 1 41.1503 49.5392 4.32257 -0.562284 -1.33528 -2.38625 5.13386e-05 -3.6847e-05 5.99444e-05 
67 1 13.8924 17.8763 49.4391 1.70065 -0.610795 0.997093 -6.93098e-06 -1.39231e-05 5.17448e-06 
68 1 34.9623 15.9284 22.5022 -1.87118 -0.694937 -0.58409 -1.0238e-05 -1.67901e-05 2.01678e-05 
69 2 44.7999 16.0462 16.938 1.40249 0.0648704 0.23551 3.54628e-05 -4.74716e-06 -1.35113e-05 
70 1 30.9107 29.6912 32.7941 0.635952 -3.79971 -0.550259 -3.35027e-06 -1.79728e-06 -2.08523e-05 
71 2 25.0218 23.6933 1.69467 -0.474166 -1.08998 0.405298 1.15355e-05 -5.44981e-06 -1.02171e-05 
72 1 50.2047 13.8953 27.7872 -1.71015 -0.00951157 -0.142481 1.80438e-05 -2.47606e-05 6.82109e-06 
73 1 16.3079 5.02878 40.2036 2.76242 -2.56775 -0.999362 1.27897e-05 1.6715e-05 1.28605e-05 
74 1 31.9316 36.5786 28.215 -1.00768 3.04286 -2.54943 3.24158e-06 7.62322e-07 -1.26697e-05 
75 1 47.9128 31.237 19.4791 -1.83756 -1.88785 1.04583 6.51599e-06 -8.85745e-07 1.25235e-05 
76 2 9.74668 42.5743 2.92359 -0.0655484 -0.485647 -0.51043 2.11848e-06 -1.48178e-05 8.11754e-06 
77 2 46.0978 46.8526 31.7872 0.628532 -1.16174 -1.25997 1.376e-05 3.23329e-05 -1.37111e-05 
78 1 53.8973 52.0613 54.1584 -3.09247 3.28264 2.28025 1.42975e-05 2.6707e-06 -1.28514e-05 
79 2 4.82534 3.5854 49.3991 1.50864 0.293806 -2.49178 8.47429e-06 1.06171e-05 2.48946e-05 
80 2 46.2212 33.9656 28.4447 1.75689 0.0836484 1.3066 -3.88024e-06 -9.232e-06 -7.06695e-06 
81 1 49.8983 19.328 8.03308 2.92366 0.209211 1.64322 1.91811e-06 -3.09488e-05 8.65466e-07 
82 1 12.9912 9.10102 52.6863 -1.13424 -2.02051 -0.631325 -2.83402e-06 -1.17403e-05 -1.55895e-05 
83 1 20.5031 15.0514 17.7478 1.67226 1.70358 -1.10721 -1.90419e-05 2.65004e-05 -4.46265e-06 
84 2 33.6256 7.10378 5.8339 1.61603 0.0227647 -1.03335 3.02605e-05 3.41033e-06 4.34147e-05 
85 2 54.5226 48.5492 18.538 -0.434223 -0.788152 1.08355 2.87929e-06 8.04564e-06 -1.28718e-05 
86 1 9.64272 33.6403 23.6163 -1.26788 0.812919 1.35221 -1.29054e-05 -8.18666e-07 3.01673e-05 
87 2 20.6808 13.1703 31.0106 -1.25117 -0.0206252 -0.468945 -6.35604e-06 2.24779e-05 1.59519e-05 
88 1 43.1289 44.3763 53.8607 0.758369 2.11986 1.99424 6.47726e-06 7.7648e-06 1.15147e-05 
89 2 27.2826 10.7634 33.8065 -1.45292 -0.108779 0.265885 4.37562e-06 2.78897e-05 7.47081e-07 
90 2 1.3189 53.7449 26.4946 -0.509462 1.41153 0.664794 2.60132e-05 -3.7799e-06 2.65909e-05 
91 2 29.2544 24.5358 25.9262 0.295072 2.43056 2.81314 -2.55728e-05 1.04504e-06 3.01925e-05 
92 2 24.5863 47.6781 34.6427 1.5191 1.2612 -0.0791063 -5.3065e-06 -1.7048e-05 1.09313e-05 
93 1 22.4961 14.9071 10.3095 0.666991 -0.116608 -3.40454 4.27817e-08 1.54683e-05 -6.45947e-06 
94 1 2.03025 29.7605 54.1897 5.67773 -1.82678 2.30628 3.15524e-05 2.205e-05 -3.41408e-05 
95 1 30.8465 21.0391 40.8106 0.808357 2.16684 -2.87632 1.22844e-06 -6.32533e-06 -1.99463e-06 
96 2 14.8554 49.8445 4.92893 -0.186117 2.27552 0.361514 3.50383e-05 2.61109e-05 -3.29464e-06 
97 1 44.5641 46.4784 16.1412 -0.762547 3.54678 1.01947 -5.22297e-07 -5.42829e-06 3.76372e-06 
98 2 52.8273 37.3769 54.009 -0.15814 -3.02211 -0.756276 -1.58146e-05 7.85728e-06 -2.13411e-05 
99 2 44.9208 3.72693 25.3509 -2.09844 0.0343383 -0.550682 -8.89593e-06 8.48197e-06 -4.59749e-06 
100 2 41.3095 8.06414 15.735 -1.68432 -0.0535734 -0.300624 -1.24159e-05 1.02847e-05 1.59681e-05 
101 2 20.8717 31.1807 39.0897 1.39253 -0.452447 0.0861689 -6.53079e-06 -1.22061e-05 -1.29066e-05 
102 2 13.7811 2.77288 6.96404 -1.08814 0.151778 -0.544349 2.10802e-05 -1.74365e-06 4.77299e-05 
103 1 38.4846 40.6481 29.1698 -0.2837 1.18833 2.43326 -2.25298e-05 1.20243e-05 -1.66091e-05 
104 1 3.74703 20.8097 12.969 -0.217707 -1.44453 -0.213624 1.40516e-05 1.88014e-05 -1.62388e-05 
105 2 24.8992 52.62 38.2565 -0.623856 0.898096 -1.87074 -2.11672e-05 -1.65654e-05 4.9131e-06 
106 2 42.3676 23.0868 36.8789 -0.681798 0.289872 0.455954 2.91441e-05 -2.31233e-05 -1.35359e-05 
107 1 14.598 25.8353 27.4693 0.882841 -0.054798 0.0304321 -2.41599e-05 1.33588e-06 -4.06025e-06 
108 2 13.5535 3.88906 26.518 -0.198893 1.64223 -1.39113 7.2676e-06 1.12665e-05 6.30876e-06 
109 2 42.1495 4.4328 26.2885 0.697455 -0.975782 -1.03967 3.82329e-05 4.28046e-05 2.39351e-06 
110 2 25.1059 36.1967 10.2424 -2.22155 -0.326105 0.547977 1.49967e-05 4.3492e-06 1.31588e-05 
111 1 51.2308 44.5461 16.6815 -0.970216 -3.90947 3.20516 -1.16113e-05 5.37543e-06 -2.89101e-06 
112 2 29.4652 41.5146 53.8472 -0.159988 -0.753816 -0.0855436 1.15755e-05 -2.92667e-06 -1.35018e-05 
113 2 31.5726 34.3211 18.361 -3.10314 2.00355 0.205136 -2.28687e-05 1.10452e-05 3.148e-05 
114 2 11.0978 31.6939 11.581 1.32355 -1.95706 0.145998 1.55006e-05 -1.85646e-05 -7.81262e-06 
115 2 0.44786 51.3764 45.537 -0.0300427 1.91602 1.13445 5.52685e-06 -2.23294e-05 1.37625e-05 
116 2 35.8616 6.27552 48.3423 0.590615 0.286546 -0.599036 -1.17458e-05 -1.10719e-05 -4.93181e-07 
117 2 38.7428 37.3993 17.972 -0.213993 -1.49028 -0.523036 4.92545e-05 5.1775e-06 1.88167e-05 
118 2 33.8574 26.2135 48.9729 0.446836 0.843491 -0.239257 -2.67626e-05 -8.73031e-06 -1.98892e-05 
119 2 41.6092 55.5562 51.5011 0.496763 2.59315 -1.29176 -6.22662e-06 -1.80277e-05 -7.27307e-07 
120 2 27.5298 26.2666 28.0193 0.785441 1.17397 -0.676296 9.36672e-06 5.7994e-07 -1.3934e-06 
121 1 28.8247 15.0674 33.256 1.86151 -1.56161 -1.23928 -3.49428e-07 -3.78199e-06 2.28644e-05 
122 2 52.6144 21.6866 10.9487 -2.35273 -1.71797 0.45014 1.20114e-05 4.186e-06 -1.60546e-05 
123 2 22.177 8.96226 18.0638 -1.19842 1.92947 -0.467763 1.84738e-05 -7.2769e-06 4.71886e-05 
124 2 23.1943 43.1644 11.6697 0.581223 0.703327 -0.0243673 2.65979e-05 -5.91989e-05 -2.7616e-05 
125 1 9.07919 42.6628 29.2069 -0.0736524 -2.37656 3.69246 8.35742e-06 -5.03279e-06 2.87062e-05 
126 1 24.2706 29.9178 29.1759 -3.55716 -2.71837 -0.931113 -1.33804e-05 3.56816e-05 -2.05276e-05 
127 2 53.6887 25.9642 36.3483 1.4667 -1.91747 0.17467 -1.45004e-05 -2.42008e-05 9.37871e-06 
128 2 47.1391 1.58934 55.4815 0.214837 -0.193335 -0.344175 7.42801e-06 4.81936e-06 9.97228e-06 
129 2 18.9916 31.3982 43.3202 0.874341 1.04331 0.705164 -5.88683e-06 -8.9086e-06 -4.44242e-06 
130 2 38.152 10.5065 7.43863 2.11506 -0.581327 -0.394497 7.5606e-06 1.15111e-05 1.09348e-05 
131 2 44.4278 32.0463 39.9771 0.675775 -0.270366 0.539583 -4.91609e-06 -1.4396e-05 -9.79406e-06 
132 2 20.5815 29.5979 3.48118 -1.24097 1.90812 -1.35367 1.84888e-07 1.07647e-05 9.39086e-06 
133 1 48.1487 40.6423 41.6808 0.645667 0.312415 -0.259297 -8.85529e-06 -1.03866e-05 -1.06941e-05 
134 2 28.3207 28.7143 12.3469 0.564373 -2.06909 0.204408 1.61731e-05 2.727e-05 -1.63997e-06 
135 2 56.0155 38.8337 21.4527 -0.0324169 0.634248 -2.09882 -1.05927e-06 -7.24459e-06 4.47574e-06 
136 2 39.1694 49.2941 41.8173 -0.287889 -0.295357 0.153196 1.79647e-05 1.47343e-05 -1.93834e-07 
137 1 11.7982 10.6916 44.1803 1.67799 2.66651 1.42987 -1.47542e-05 1.01012e-05 1.34088e-05 
138 2 27.346 4.29327 38.394 -0.375752 0.6399 -1.57017 -3.75435e-07 -3.49257e-06 -1.49574e-05 
139 2 30.6606 25.7296 32.5832 -1.18952 0.86461 -1.79452 -1.57677e-05 7.3683e-06 -4.32005e-05 
140 1 53.9236 8.1575 52.3404 -0.674672 -1.42097 2.75728 -5.42114e-06 5.6819e-06 -2.08459e-06 
141 1 11.9837 36.7003 42.6451 -2.27772 2.59749 -2.19931 -2.152e-05 2.52259e-07 1.37495e-05 
142 2 54.6601 49.5551 27.4186 3.90386 -0.0901027 -0.319121 1.68197e-05 -1.75931e-05 1.37851e-05 
143 1 30.455 47.9784 5.6163 -0.142494 0.0531503 -1.30524 -8.27671e-07 1.07801e-05 5.00176e-05 
144 2 38.3836 1.49405 18.4784 1.48212 -0.479408 -1.37861 1.82545e-05 -4.856e-05 -3.80465e-05 
145 2 40.41 10.4091 29.8326 -0.230398 -0.574218 0.113627 2.93944e-06 -3.43448e-05 -5.14722e-05 
146 1 40.7794 9.39951 41.199 -0.204703 -0.944206 -1.60432 -5.1077e-06 -2.80443e-05 1.44329e-05 
147 2 14.7702 6.97345 34.1717 -1.06656 0.860155 1.44663 -1.01032e-05 3.2356e-06 -8.80172e-07 
148 2 16.3443 30.4802 20.4159 -0.0479967 0.851248 -2.21683 -8.19703e-07 -7.8932e-06 1.02688e-05 
149 2 2.31148 45.7051 30.629 0.303016 0.295198 -0.191544 1.5122e-06 2.22134e-05 1.43368e-06 
150 2 34.8407 11.4242 29.8243 0.474227 0.111241 -1.63109 -2.23192e-06 1.49288e-06 -2.42806e-05 
151 2 31.1727 35.0236 14.2142 1.45859 -1.60478 -1.29865 4.45113e-05 -6.72865e-06 8.71542e-06 
152 2 17.7817 29.3698 29.882 0.165554 -0.319006 0.99726 -5.20189e-06 -3.35034e-06 -5.6199e-06 
153 2 23.4685 24.775 30.1173 1.13052 2.62444 0.360033 1.49318e-05 1.57534e-05 -1.52635e-05 
154 2 7.26463 9.54736 34.2904 0.356235 0.262575 0.606436 -1.03089e-06 -2.01084e-05 -2.46531e-06 
155 2 43.55 50.234 47.2879 -1.85935 0.273401 0.645892 -8.88734e-06 -1.60943e-05 -1.15525e-05 
156 2 43.3462 50.5265 33.8869 0.766092 0.00280255 -0.373014 -8.9165e-06 1.17211e-05 -1.31599e-05 
157 1 36.064 6.00886 55.8977 -1.75752 -4.20239 -0.393778 -3.90872e-05 -2.33134e-05 2.02743e-05 
158 2 39.7718 25.8667 45.604 -1.93776 -0.389316 0.168932 -1.87314e-05 -3.81191e-05 -5.60624e-06 
159 2 0.495112 50.3795 14.0646 -1.01579 -1.14529 -1.14338 3.58468e-05 -9.4236e-07 -1.42286e-05 
160 2 5.90742 31.7712 30.2614 1.30962 0.609313 -0.353221 -4.37109e-06 2.92405e-06 -8.60324e-06 
161 2 16.5724 39.1139 52.672 0.105521 -0.933632 -0.0517522 2.99546e-05 1.35539e-05 1.12913e-06 
162 2 40.9714 41.4668 2.4746 -1.10835 0.668702 1.24496 3.43502e-05 -1.32154e-06 -5.56239e-06 
163 1 9.86128 1.82259 44.5251 0.551549 -0.309654 -1.57295 2.55231e-06 2.01015e-05 2.52129e-05 
164 2 36.6409 44.2911 8.32434 0.461623 -0.0143968 -0.0681125 1.07657e-05 -2.03466e-05 2.03831e-05 
165 1 47.9279 1.86965 35.8862 -0.0095277 -0.170431 0.538215 -1.89246e-05 -5.57537e-06 2.47904e-06 
166 2 49.0611 22.0083 4.75123 -1.2484 2.01529 -1.19389 -1.63263e-05 -3.57734e-06 3.06169e-06 
167 2 16.5922 8.81119 18.4658 -1.56669 0.335878 0.683155 -5.16747e-07 -1.09749e-05 4.7067e-05 
168 2 19.0377 2.39629 10.4878 -0.461199 -1.92054 0.445127 2.28457e-05 -2.40073e-06 4.15962e-06 
169 1 6.33965 47.9094 28.0527 -1.97531 -1.1348 2.96707 -1.16227e-07 2.24703e-06 9.49269e-07 
170 1 41.7801 22.0559 16.983 -1.71984 -1.86625 -1.40306 -2.58191e-05 2.50097e-05 -9.31454e-06 
171 1 48.1887 36.3879 54.7568 -4.62459 -0.71733 -0.547475 -1.02331e-05 -1.7841e-05 -3.7527e-05 
172 2 55.6397 33.5457 43.7238 -1.65958 0.829559 0.674002 -4.30496e-06 -6.4616e-06 9.18027e-06 
173 1 52.6143 45.8867 0.799131 2.85012 -0.777735 -1.12028 1.4065e-05 2.6435e-05 2.52145e-06 
174 2 6.64796 18.8264 31.7864 -0.261141 -1.35882 -0.917664 -7.18792e-06 1.73485e-05 6.7821e-06 
175 1 14.1616 39.011 31.3349 -3.91886 0.287103 -0.150012 -1.27948e-05 -5.26655e-06 6.2959e-06 
176 2 7.44312 40.4745 14.2611 0.256954 -0.843409 -0.011008 5.99955e-06 -3.39226e-05 9.49224e-06 
177 2 14.9456 35.6414 18.5656 0.110362 -0.679277 -2.35107 -2.24018e-05 -2.17974e-05 -4.66759e-07 
178 2 50.1389 15.2539 38.8812 -0.453386 -0.900625 0.791389 2.9281e-05 -1.28467e-05 1.62801e-05 
179 2 9.18763 24.6926 33.1185 0.480121 1.37312 2.72839 -1.28836e-05 1.33936e-05 3.6558e-06 
180 2 40.8756 28.6639 36.5125 -0.54302 2.02377 0.913577 -7.54177e-06 -9.89169e-06 -8.48885e-06 
181 2 19.9573 45.1531 41.9756 -0.162798 -2.07476 -0.327116 -7.88456e-07 -2.95563e-06 -1.34554e-05 
182 1 8.55376 46.9376 15.8362 1.48886 1.43394 -0.820585 1.44371e-05 -6.49592e-06 4.15521e-05 
183 2 54.811 30.0259 38.2577 0.0230912 0.425967 -1.63322 -1.76522e-05 -8.93995e-07 -1.11454e-05 
184 2 6.61168 39.8062 37.9081 -1.01147 0.15379 0.183435 -4.75864e-06 1.1643e-05 2.06127e-05 
185 1 3.36405 32.6216 19.8581 -2.00929 -4.28659 0.491328 5.96197e-07 -3.0637e-06 1.94405e-06 
186 1 30.5226 6.88186 11.1014 1.70649 4.34857 0.536351 3.31196e-05 -4.83859e-05 -1.01616e-05 
187 2 16.7291 38.8096 48.2391 1.28951 1.02522 -0.0744391 7.69624e-06 1.08869e-05 5.43869e-07 
188 1 25.8371 56.4654 36.6809 0.549905 2.0697 -2.47247 -9.59058e-07 1.52777e-05 -5.17206e-07 
189 2 54.6321 37.965 19.3712 1.21568 -0.713763 -0.450861 -3.2451e-06 -1.67043e-05 4.61607e-06 
190 2 30.5861 29.3622 11.0001 0.837748 -1.64414 -0.263102 -1.88685e-05 -5.73696e-06 1.32146e-05 
191 2 25.0827 31.2586 24.0211 0.686675 -1.47506 0.0142513 -8.52294e-07 3.22659e-05 -1.16824e-07 
192 2 17.3575 52.2737 53.6453 0.143586 -0.442998 -1.08868 3.11902e-05 7.84076e-06 -2.36976e-05 
193 2 22.9253 54.5797 38.9596 1.46481 0.0168517 -0.0855158 1.66205e-05 -3.25932e-06 -2.09601e-05 
194 2 37.2198 5.50297 52.8307 -1.82553 1.81037 0.340844 1.29016e-05 -1.128e-05 3.37019e-05 
195 1 40.4342 53.3404 27.3619 -3.92117 -2.01664 0.492073 -1.74082e-06 -1.77656e-05 -5.51646e-06 
196 2 2.69584 10.32 16.855 -1.22227 1.58788 3.34111 -2.83439e-06 7.28142e-06 1.55638e-05 
197 2 53.1253 53.3106 49.8686 0.704509 0.426667 -0.37669 3.45629e-05 1.70623e-05 5.80166e-06 
198 1 52.6977 56.1426 6.45571 2.90743 -1.47163 -0.811873 1.39456e-05 -6.74453e-06 1.13029e-05 
199 2 1.62747 12.6543 3.84304 -1.15698 -0.213669 0.892947 7.15278e-06 1.16657e-05 -3.19646e-06 
200 2 33.2155 2.08235 22.9934 -0.978462 -0.475483 0.229003 2.2084e-05 -1.6981e-06 3.6061e-05 
201 1 20.1964 30.0329 36.4179 -2.75572 -2.56701 0.0357583 -1.30829e-05 1.654e-05 9.19209e-06 
202 1 13.0134 33.8527 44.3917 0.203557 -0.971366 0.31552 -2.18389e-05 -3.88878e-06 1.58419e-05 
203 1 18.2054 26.0692 22.7478 -0.667356 -2.29437 0.777163 1.72479e-06 1.05411e-05 8.51776e-07 
204 2 45.8185 39.4457 29.3315 1.80867 0.624002 0.000640831 2.92095e-06 1.2435e-05 3.13461e-05 
205 2 33.9576 35.3905 50.8617 2.2712 1.26191 1.70838 -2.28949e-05 -2.2215e-06 -8.73768e-06 
206 2 15.6529 3.91818 51.7704 -0.576189 0.986311 -1.7594 -7.03974e-06 4.01423e-05 -1.61769e-05 
207 2 32.6927 50.4917 17.4426 2.5314 0.819121 -0.886682 -4.08362e-07 -2.21992e-05 3.85259e-06 
208 1 3.10667 38.6828 50.7456 -0.904953 0.58059 -2.78168 7.82644e-05 8.57792e-05 6.00742e-05 
209 2 42.7406 55.7098 2.62482 -0.199688 1.34397 -1.40413 -2.5133e-06 -2.04666e-05 1.28176e-06 
210 2 27.5208 33.3204 29.8062 -1.33258 -2.59477 -1.94656 -2.35723e-06 -1.82587e-05 -1.61336e-05 
211 1 16.6948 38.0393 17.7886 0.889506 1.80352 -3.37946 1.34469e-05 9.77907e-06 -1.76263e-05 
212 1 28.0132 28.317 47.6109 0.190186 4.6016 -0.567365 -7.15315e-07 2.56021e-06 1.16924e-05 
213 2 6.01082 29.766 42.655 -1.33664 1.89057 0.247163 -2.65417e-05 2.37538e-05 1.97533e-05 
214 2 40.2811 16.4001 50.0376 -0.762854 0.295928 0.542718 -1.91871e-05 -8.27044e-06 1.48586e-07 
215 2 21.7349 54.91 13.7323 -0.587861 -3.44243 -1.99792 -3.90986e-05 -9.22107e-05 5.43791e-05 
216 2 18.1075 32.9885 16.1423 0.488851 1.33461 1.51058 -1.24561e-05 -4.00461e-06 -1.16186e-05 
217 1 1.35316 55.5248 48.6992 -1.62919 -2.28937 -0.483678 3.13982e-05 1.22472e-05 1.84407e-05 
218 2 13.9752 13.3971 46.5331 -0.52691 -0.70733 0.718313 -3.67822e-06 8.98683e-06 9.969e-10 
219 2 45.4397 31.245 18.5893 1.31416 -2.18103 0.475134 -3.14646e-06 4.32096e-06 -2.15815e-05 
220 1 27.193 29.6837 32.6261 3.49067 -1.36275 0.0103582 -6.88221e-06 8.59521e-06 -7.14346e-06 
221 2 52.2133 51.7403 8.50657 1.92225 -0.400713 0.675744 1.13982e-05 -2.79979e-06 -7.18126e-06 
222 2 18.1285 32.4357 20.7347 0.66123 0.18019 -1.12338 -1.23901e-06 -1.863e-05 1.87999e-05 
223 2 47.0028 3.88561 23.4249 -0.894615 -0.193385 -0.588639 2.84364e-05 -5.96188e-07 -4.11363e-05 
224 2 49.173 30.1953 17.5144 0.92362 1.257 -1.47506 3.14092e-05 -2.73496e-06 -2.42175e-05 
225 2 11.1673 33.8289 42.5823 -0.134519 -0.19412 -0.174126 5.84087e-06 4.11273e-05 -1.02556e-05 
226 1 21.3767 24.8952 40.8785 1.09168 0.38979 1.24577 -1.17444e-05 -4.12586e-06 -8.09711e-06 
227 2 1.10669 8.20816 15.8234 -1.12117 -0.710777 0.595034 3.45346e-06 -1.37153e-05 2.46542e-05 
228 2 23.2384 37.4692 40.9889 -1.12239 -0.367316 0.470258 -1.01445e-05 1.54969e-07 1.35253e-05 
229 2 55.7574 17.4953 42.7722 -0.57746 1.32422 0.237038 -9.28641e-06 -2.38998e-05 -1.66171e-05 
230 2 16.1627 44.0983 56.1257 1.77303 -1.21078 -0.203834 3.83128e-05 -1.67982e-05 3.02616e-05 
231 2 21.9145 37.2204 47.9306 1.60399 2.35968 -0.107236 -1.2576e-05 -9.21759e-07 -1.00032e-05 
232 2 6.93563 47.8968 33.4341 0.678067 -1.42211 -1.22647 -1.53369e-05 -1.51642e-06 1.42027e-05 
233 2 50.0054 6.41662 36.8361 -0.384083 -0.987364 1.1349 6.74475e-05 1.77753e-05 2.81377e-05 
234 2 16.0062 1.67562 16.5085 -1.28787 2.37749 -0.966721 1.83408e-06 -3.97191e-05 5.73298e-05 
235 1 18.9615 20.4251 7.53686 0.146451 0.137185 -1.61415 -7.30489e-06 9.35028e-06 -3.78929e-05 
236 1 54.5027 9.77152 14.4648 -4.70994 -3.15438 -3.94441 2.62217e-05 1.25951e-05 7.61763e-06 
237 2 31.583 51.1052 5.63467 0.446161 2.85981 0.556581 -4.33505e-06 -3.52821e-05 -3.15666e-05 
238 2 35.1632 30.0684 18.8307 0.276078 -2.61707 -1.15338 6.2046e-06 5.44998e-06 5.22688e-06 
239 1 21.0867 48.7059 5.47306 -1.43118 0.679591 0.168879 1.20004e-06 2.94422e-05 -1.10346e-05 
240 2 10.3783 39.8228 45.7121 -1.91202 0.0714041 1.27846 -2.13068e-05 -4.08731e-05 3.07553e-05 
241 2 44.491 43.9676 17.6468 -1.84482 0.157067 -2.4057 -2.34813e-05 -2.29024e-05 -5.42196e-06 
242 1 4.75627 54.0604 9.93933 -1.59539 4.75723 0.950893 3.518e-05 5.62507e-06 -2.63434e-06 
243 2 24.2237 16.9814 31.618 -1.26764 0.834672 0.460665 -1.26392e-05 1.77941e-06 -1.75851e-05 
244 1 3.08419 47.2735 35.6114 1.81213 -1.45553 -1.79533 -2.59748e-06 9.97132e-07 1.17931e-05 
245 2 23.0292 28.6232 17.9842 0.73865 -1.59083 -0.228647 -2.9015e-06 2.20253e-06 -3.01801e-05 
246 2 24.5153 33.7012 19.977 0.543368 0.686216 -0.880075 -2.26082e-06 2.87008e-05 8.89321e-06 
247 2 47.5236 51.4636 32.7779 -0.0192501 0.563776 -0.574158 -1.1935e-05 -9.26078e-06 4.32148e-06 
248 1 44.0874 51.8019 0.705169 3.62494 2.93821 -4.77439 -8.56726e-06 -2.19446e-06 -1.29683e-05 
249 2 45.6846 5.93094 1.13939 -1.65711 -2.6009 -0.356354 -5.75159e-06 -8.75283e-06 3.71081e-06 
250 2 35.3954 10.8455 47.9605 0.909575 -2.01167 -1.13892 -7.87145e-06 1.35009e-05 -1.20425e-05 
251 2 26.6904 42.3138 54.4505 1.02853 1.33896 1.22857 1.9593e-05 3.32549e-06 -5.82931e-06 
252 2 0.704579 21.5734 7.40479 1.15212 0.276249 0.243581 7.37215e-06 9.15323e-06 -1.81885e-06 
253 1 47.6441 50.893 45.0833 -0.753065 2.71744 -0.109817 1.11163e-05 -3.45793e-06 5.48464e-06 
254 2 2.96733 51.0543 13.0824 0.108747 1.59876 0.668437 -8.96956e-06 -1.09096e-05 3.52477e-06 
255 2 16.0123 20.0566 32.9698 0.462142 -1.03824 -0.427864 -2.20295e-05 -7.55364e-06 5.98865e-06 
256 1 43.6641 51.5254 15.0702 -3.78498 1.13556 -0.797862 -1.72228e-05 -1.79832e-05 -2.67095e-05 
257 1 12.3891 34.3523 30.4022 -1.82405 -1.87456 0.500264 -1.81929e-05 -1.48216e-05 6.85583e-06 
258 2 18.7929 55.2654 44.7014 -0.352405 0.569456 -0.0622086 3.62964e-05 7.84859e-06 4.9033e-06 
259 2 51.1221 54.2212 22.9485 0.927076 0.567901 -2.05641 7.26989e-06 1.34924e-05 1.11289e-05 
260 1 2.36369 28.1763 52.0335 -3.65773 4.39639 -1.98129 -1.1555e-05 1.7146e-05 -4.54672e-05 
261 1 24.9523 46.9153 9.91111 0.350875 -2.42619 -1.07935 -6.46428e-06 -5.24016e-05 -2.99388e-05 
262 1 37.0588 11.6367 27.6572 -5.05488 4.33726 -2.44555 -1.79594e-05 -4.10617e-06 -3.60989e-06 
263 2 12.5079 48.0551 50.5605 0.986291 -0.961864 -0.489782 1.43786e-05 3.35503e-06 -1.20011e-05 
264 2 37.3768 13.9805 17.6774 -0.639796 0.560649 -0.894959 -1.45861e-05 -4.03094e-05 -3.06199e-05 
265 2 17.7197 39.0618 34.4721 -1.79412 -2.19095 -1.23486 -2.20234e-05 1.42263e-05 -3.04764e-06 
266 1 36.7473 36.5304 43.9594 -2.63879 -1.64651 -2.41072 -1.19664e-05 -1.22109e-06 -1.58404e-06 
267 2 4.88464 7.48263 29.6047 1.34897 -0.679316 1.75954 4.05501e-06 -2.24677e-06 3.87868e-06 
268 2 16.97 31.6637 41.3131 1.22521 2.1005 1.59108 -2.01745e-05 -3.03235e-06 1.37584e-05 
269 1 13.2728 7.8255 38.2178 -0.743824 -1.92707 3.90467 -8.32414e-06 2.10582e-05 -3.63453e-06 
270 2 35.4655 50.0294 52.2713 -0.169527 -0.0856379 -0.664255 1.7281e-05 4.02758e-06 7.25625e-06 
271 2 18.5798 45.3324 21.7493 2.07158 0.659917 -0.954926 -1.66852e-05 1.11186e-05 5.73421e-06 
272 1 54.65 43.5246 15.0403 -0.127303 4.5313 -1.46271 1.54731e-05 1.20721e-05 -5.92911e-06 
273 2 5.99214 32.0893 0.429918 -1.64539 -0.153352 0.708798 -6.46516e-06 3.89113e-05 -1.40625e-05 
274 1 1.13154 48.2291 36.6873 -1.18856 -1.33573 -0.093893 3.0922e-06 -5.73932e-06 4.80422e-06 
275 2 2.70129 1.11158 27.3915 1.74995 0.485203 1.77677 -2.13839e-05 -4.89581e-06 -3.6228e-05 
276 2 18.2363 7.23989 11.0445 -0.667443 0.146853 -1.16789 -3.8627e-05 -3.08345e-05 4.66074e-05 
277 2 26.69 53.125 7.9742 -0.414779 -0.492043 -1.00017 -5.39449e-05 -3.32919e-05 -4.89095e-05 
278 2 48.5418 50.3197 24.8919 -1.47151 0.670852 -0.597006 2.19288e-05 -4.89894e-06 -3.21436e-05 
279 2 31.0718 32.3821 20.3471 2.24989 -1.62935 0.676278 -1.215e-06 1.03353e-06 6.99547e-06 
280 2 16.7393 8.99365 2.16192 -1.57077 2.00128 0.45504 -2.07358e-05 1.92743e-05 1.53855e-05 
281 2 27.5283 44.7902 4.77705 -2.35153 0.287229 1.82438 4.2816e-05 3.05539e-05 7.10942e-06 
282 2 35.0684 34.0579 48.5192 0.657846 -0.318596 -1.50829 -1.23049e-05 -3.64676e-06 -5.11021e-05 
283 2 54.1924 17.8757 51.0518 -0.491663 -2.29218 0.241957 -6.99478e-05 -6.25703e-05 1.54471e-05 
284 2 50.8783 4.41998 12.0536 -0.0396286 2.27431 -0.349636 5.59642e-06 -1.00894e-05 4.26182e-05 
285 2 35.3717 36.1613 37.9261 -2.72769 0.276051 -1.48174 -3.15296e-05 2.73317e-06 -3.94308e-05 
286 2 14.519 8.06131 47.4593 1.84848 0.644104 -1.95013 -1.07962e-05 -6.68046e-06 4.14386e-06 
287 2 9.20944 17.635 25.4833 -0.0286827 -0.521328 -0.243633 1.14268e-05 5.48144e-06 2.54588e-06 
288 2 53.6907 4.20909 54.3917 1.30095 2.30808 -0.551273 1.15691e-05 1.51541e-05 7.11765e-07 
289 2 0.502278 8.21684 4.93353 0.66039 -0.821178 0.513961 7.33324e-06 6.91769e-06 -1.68491e-05 
290 2 42.756 53.3911 7.94863 1.04652 -0.918019 1.84633 -2.0565e-06 -2.66502e-05 2.87882e-05 
291 2 29.7213 42.2095 31.3033 -0.841598 0.390184 -0.655054 3.58933e-06 1.61789e-05 1.78317e-05 
292 2 4.31698 5.93302 42.4189 0.800817 -1.55448 0.869914 -1.29978e-05 -4.4235e-05 1.97902e-05 
293 2 9.34933 20.1057 49.8203 0.4684 -1.70007 1.29069 -1.57566e-05 1.10466e-05 -4.67152e-06 
294 2 46.5684 52.2807 25.1843 -1.07562 -0.607855 -0.36678 1.33836e-05 -3.37166e-05 -4.99636e-05 
295 1 10.6958 53.7693 33.5079 4.95266 -0.187933 -2.22959 8.33506e-06 -1.2576e-05 -3.57371e-06 
296 2 34.4866 41.3888 29.7886 -0.553859 1.19217 2.34517 -1.20529e-05 -9.63363e-06 7.9626e-06 
297 1 1.56314 54.9643 31.0129 1.90365 -2.97153 -2.28917 -6.96963e-06 5.56913e-06 -2.2494e-05 
298 1 39.904 55.7894 22.1896 -0.266122 0.535722 0.671109 1.52087e-05 -2.75416e-06 -1.80497e-05 
299 1 46.5096 34.1646 8.51029 -0.150495 0.750495 1.13256 1.29517e-06 -1.38766e-05 -2.11232e-05 
300 1 34.4438 21.1598 39.0777 -2.68302 -0.162755 2.90951 7.61727e-06 6.48981e-06 -1.58516e-05 
301 2 34.536 25.0388 37.1282 -1.05661 1.81632 0.184585 -7.02889e-06 -5.61805e-06 -1.86076e-05 
302 1 19.342 47.8946 54.2372 -1.70124 -0.462543 0.254908 3.63867e-05 5.04504e-07 9.47974e-06 
303 2 53.5344 11.5545 44.6983 1.01598 -0.732298 -0.081305 6.21463e-07 1.18811e-06 -1.73039e-05 
304 2 21.3981 52.617 34.7657 -0.638596 1.03086 -0.0564795 7.17297e-06 6.5254e-06 -3.85242e-05 
305 2 10.2808 15.3229 50.456 2.85007 1.14926 0.786421 1.77935e-05 1.04723e-05 1.27241e-05 
306 2 34.2421 45.7783 32.5904 0.465155 1.0956 0.568942 -3.15548e-05 5.26482e-06 -2.16141e-05 
307 2 14.1465 5.71245 28.9918 2.08687 0.156819 0.836398 -9.11841e-06 -1.63564e-05 2.65437e-05 
308 2 39.6908 2.90277 11.8768 -0.59139 -0.471269 -0.485942 -1.99352e-05 2.36207e-05 -3.26775e-05 
309 2 11.5733 17.1785 37.0202 -0.631219 -0.905796 0.585411 -1.79473e-05 1.02538e-05 6.59193e-06 
310 2 24.1089 35.4671 52.5733 3.35373 -0.173103 1.95898 -1.2134e-05 9.75301e-06 8.0113e-06 
311 2 2.64045 30.0402 20.8563 -0.576569 -1.17353 0.248469 6.08487e-06 -8.70208e-06 9.37585e-06 
312 1 35.8011 15.2772 24.9575 1.45135 3.47817 -1.10509 -1.13843e-05 1.00132e-05 -1.72464e-05 
313 2 20.5652 12.0051 13.2636 -1.36468 0.176706 2.21713 -2.91004e-05 1.01337e-05 1.79756e-05 
314 1 45.3126 52.8245 19.611 2.88005 -1.13375 0.696687 -4.70154e-05 1.00147e-05 -3.95895e-06 
315 2 12.8689 43.26 49.0925 -0.33459 0.171748 0.184569 3.2814e-05 2.63777e-05 2.07548e-05 