ITEM: TIMESTEP
21153
ITEM: NUMBER OF ATOMS
11664
ITEM: BOX BOUNDS pp pp pp
0.721927 56.2451
0.721927 56.2451
0.721927 56.2451
ITEM: ATOMS id type x y z vx vy vz fx fy fz 
1 2 21.6055 1.18882 42.4015 -0.529468 -2.40965 2.40085 -1.34713e-05 2.03111e-05 -1.83226e-05 
2 1 31.0976 5.36029 55.7169 2.40221 0.0558357 3.88597 2.33739e-05 8.72564e-06 2.45099e-05 
3 1 14.8977 41.669 35.126 -1.06137 -1.00807 -0.920083 -4.59109e-06 8.96811e-06 6.80901e-07 
4 2 15.9933 7.64043 49.7059 1.48146 1.65504 -0.562211 1.73637e-05 -2.30748e-05 -1.12934e-05 
5 2 38.7827 2.71847 48.5114 1.40565 2.11509 -0.839363 -1.7983e-06 2.80875e-05 -6.97108e-06 
6 2 43.2422 38.7485 1.30538 0.977437 -2.01347 0.624259 -2.98013e-06 8.12023e-06 9.3138e-06 
7 1 25.5089 13.1477 2.82369 -4.25097 1.00845 -1.45959 -2.0786e-05 1.64226e-05 4.49044e-06 
8 2 37.0006 3.00422 22.5264 -0.746307 2.24613 -0.961786 3.77169e-05 4.23385e-05 3.0201e-06 
9 1 55.4177 49.0561 4.70727 -1.01123 1.66835 2.19836 5.02977e-08 -2.58973e-05 -1.74707e-05 
10 1 53.703 42.9675 34.3431 3.29995 0.760903 -0.304819 -3.48913e-06 -2.50156e-05 -9.53348e-06 
11 1 36.5406 7.29651 39.4177 -0.73129 -3.88705 -0.349679 -4.85629e-06 3.25143e-05 -3.45343e-06 
12 1 44.6191 27.1371 40.582 -1.75383 -0.352178 1.6115 -1.70129e-05 1.07532e-06 1.83203e-05 
13 1 29.3184 29.5126 7.66939 -1.34471 3.41736 -1.01404 -2.31539e-05 4.71026e-05 4.07304e-05 
14 2 49.1263 22.2251 32.8375 2.36864 2.22556 -0.802921 -1.09165e-05 5.0465e-06 1.34739e-05 
15 1 38.0957 23.3597 25.1826 3.53369 -1.26182 -1.17303 -9.21127e-06 3.65462e-05 -1.91077e-05 
16 2 41.2242 6.19268 10.6061 0.505364 -1.33318 -1.3617 9.18611e-06 9.83467e-06 -8.11983e-07 
17 1 49.0046 37.315 8.02238 1.02903 1.97842 -2.78701 -3.58907e-05 6.70111e-07 1.15951e-05 
18 1 7.79044 37.25 27.7529 -1.2626 3.76824 2.87201 -1.01215e-05 -1.7592e-05 7.41116e-07 
19 1 24.8306 4.68356 42.7766 3.2437 2.16968 0.355391 3.14372e-06 2.23306e-05 -1.18915e-06 
20 1 27.265 30.9621 51.6223 -2.76524 2.81853 0.594517 -2.22018e-05 9.45675e-06 3.70655e-05 
21 2 14.1847 2.69698 36.7328 -1.14533 1.03682 -0.138811 0.000288892 -0.000181215 7.46078e-05 
22 2 35.9184 11.5463 20.8783 0.876047 0.811539 -3.04138 2.35868e-05 2.17026e-05 -8.54761e-06 
23 2 28.8456 36.9448 29.1812 0.763035 -0.813432 -0.238659 -9.52735e-06 2.11092e-05 3.55822e-05 
24 1 27.3321 29.201 1.07565 0.696242 -2.5625 -3.73806 -8.75664e-06 7.97766e-06 2.24739e-05 
25 1 22.5221 6.52914 51.9619 -2.37863 -0.809156 0.92755 2.22715e-05 1.62207e-05 1.13689e-05 
26 1 13.3466 47.2768 28.934 1.08868 -0.394629 1.27374 3.4652e-05 -2.67276e-05 5.37802e-08 
27 1 36.7534 49.5455 37.2191 -2.04151 -0.649773 -1.6023 9.02434e-06 3.36048e-05 1.29433e-05 
28 2 52.4752 33.4184 9.54337 0.639414 0.760636 -0.885708 1.19993e-05 -1.81186e-05 -8.94659e-06 
29 2 15.6286 2.42433 39.2176 0.505189 -0.0095916 -1.82786 8.39962e-06 2.78811e-05 9.50347e-05 
30 1 26.5623 54.4904 14.2121 -1.13253 2.5114 2.76938 -5.71379e-06 3.20215e-05 1.62633e-06 
31 2 33.2807 9.79851 51.9156 -0.861132 1.75431 -0.421285 8.61737e-06 1.38599e-05 6.51757e-06 
32 2 37.5854 23.6487 16.4262 1.08191 -0.268422 -0.183054 1.24816e-05 3.22449e-05 -6.04276e-06 
33 1 34.36 36.5906 16.2072 -2.61997 2.85897 -0.247829 2.76669e-06 3.64171e-05 2.01176e-05 
34 2 29.5055 49.6852 41.1018 1.20572 -0.350666 -0.621706 -6.20566e-06 5.465e-05 9.36602e-06 
35 2 31.728 25.3993 2.03467 1.90463 -1.50023 -0.987753 1.04535e-05 -1.09536e-05 -6.25925e-06 
36 1 51.7017 25.5345 1.18917 -3.14964 1.53782 -0.529167 -5.40294e-05 -1.27499e-05 1.45915e-05 
37 2 31.4522 34.2943 45.2362 0.0666334 -0.0892775 -2.08847 -6.63622e-06 1.5498e-05 1.62987e-05 
38 2 41.4024 22.4 34.3604 2.0706 0.646744 2.7085 6.30366e-06 2.7849e-05 3.42016e-06 
39 1 35.6531 13.7964 36.9679 -0.231109 -1.11484 2.43247 -5.03328e-06 3.99526e-05 -1.00363e-05 
40 2 51.8268 4.25092 32.8128 -0.482405 -0.567556 -2.24453 8.20762e-06 -2.61196e-05 -2.4524e-05 
41 2 43.7436 5.41775 11.6736 0.0879319 -0.866539 0.116614 8.81833e-06 4.46534e-06 -2.75435e-05 
42 2 11.524 29.6285 25.7197 1.63373 -0.315757 0.0335626 -3.81734e-06 -2.36713e-05 2.18853e-06 
43 2 24.0393 35.9199 48.6469 1.40818 0.53151 0.229355 -1.26212e-06 1.68041e-05 3.04943e-05 
44 1 41.1189 12.9245 16.6601 0.745633 -0.0411005 -0.0221243 -1.07716e-06 1.36313e-05 1.0623e-05 
45 1 25.995 35.0554 11.2813 -1.87632 4.38556 -1.36377 -3.75936e-06 1.93461e-05 1.49248e-05 
46 2 4.64589 46.3554 13.8048 0.598918 -0.16902 -1.34652 1.09149e-05 -4.31479e-05 -3.77968e-06 
47 1 24.8893 50.6683 43.8226 -0.431382 -2.06992 1.07808 -6.6738e-06 2.57841e-05 1.18349e-05 
48 1 32.3526 48.9217 16.1218 1.77565 -1.21558 -1.49565 1.23566e-05 6.18649e-06 2.88795e-05 
49 1 37.2859 5.29697 54.1479 2.0089 0.555883 0.180413 2.53919e-05 2.28838e-05 -8.01977e-06 
50 2 43.9321 52.2047 25.6971 -0.148988 1.09176 1.25753 6.43436e-06 -5.18878e-06 1.2433e-05 
51 2 33.419 27.2141 26.7201 -0.769329 2.23389 -1.51569 -2.35111e-05 3.25609e-05 6.97428e-06 
52 2 45.3152 49.7918 50.5621 -0.204519 1.34392 -0.434348 -5.94882e-06 1.47819e-05 -3.6324e-06 
53 1 3.41444 27.0443 28.7098 -1.19784 -5.58357 0.827751 -2.8391e-06 -2.12944e-05 -7.98713e-06 
54 2 42.3113 35.9775 52.3405 -0.983547 1.41218 0.296524 3.93103e-05 -1.05865e-05 1.54806e-05 
55 2 27.6529 48.3778 18.5222 -2.0718 0.305082 0.305674 -4.88588e-06 1.44162e-05 1.13985e-05 
56 2 22.4267 51.3115 42.1652 0.6556 -0.7415 0.254475 -7.2698e-06 3.85391e-05 1.336e-05 
57 1 2.83795 10.139 4.90568 -5.78127 1.43589 -1.74999 -1.01905e-05 -3.02247e-05 -2.14763e-05 
58 2 19.2389 41.7059 55.3724 0.848189 -0.0738293 2.06847 1.03262e-06 -2.71928e-06 -4.00075e-07 
59 2 49.8329 52.7992 17.9672 0.791274 0.042198 0.653871 -2.52631e-05 1.07049e-05 9.82098e-06 
60 1 5.69161 2.32642 35.5283 -0.32645 1.00709 1.64929 2.71185e-05 -4.60818e-05 -2.96052e-05 
61 2 18.9851 26.8369 14.0644 -2.34988 1.3868 0.879368 -1.52492e-05 -2.21442e-05 1.45692e-05 
62 2 52.4302 14.4262 32.4069 -2.90559 -0.666875 2.73725 -4.18573e-06 -1.34043e-05 -1.42958e-05 
63 1 42.8511 3.74895 48.8291 -2.26515 0.253383 -0.000565312 2.07375e-05 1.84413e-05 -1.6473e-05 
64 1 40.829 48.6314 45.2191 -2.1345 -1.32815 4.59538 -1.26843e-05 2.12091e-05 -3.51445e-06 
65 1 23.6909 30.3612 32.7516 1.67055 1.58726 -2.31513 7.99422e-07 3.12575e-05 3.26272e-05 
66 1 40.4742 23.2284 25.012 -3.79575 0.0858974 2.16394 -1.30869e-05 2.17554e-05 -1.8118e-06 
67 1 27.9714 10.0038 38.3959 1.37588 -0.0108218 0.48035 -1.75344e-07 4.56305e-05 -1.19255e-05 
68 1 21.2962 48.1874 44.3722 -2.96198 -1.78774 0.618768 4.3228e-06 2.99218e-05 2.08898e-05 
69 2 5.98424 11.0226 43.6018 -0.680811 1.07312 -1.24293 1.40882e-05 -2.68111e-05 -2.76137e-05 
70 1 10.7854 0.840623 1.60763 -1.36892 -0.563233 1.42281 1.09278e-05 -3.38667e-05 -1.5251e-05 
71 2 22.1453 3.70624 44.2808 -0.0526245 -1.746 0.661408 1.90224e-05 2.25965e-05 -1.19589e-05 
72 1 46.4323 2.77762 22.7626 3.44183 -5.60867 -0.226636 1.95372e-05 1.24666e-05 3.81318e-06 
73 1 22.1565 54.0973 32.0613 0.546006 -0.233424 0.306212 9.38268e-06 2.65373e-05 4.70724e-06 
74 1 33.9142 15.0178 53.477 1.32755 -0.85175 3.61664 -2.23892e-05 5.17006e-05 3.0619e-05 
75 1 21.7275 47.4946 1.06499 -1.39694 2.84296 -4.31195 1.82064e-05 1.76341e-05 -1.77283e-05 
76 2 47.5574 6.49704 24.8141 0.908213 -0.288298 1.04992 6.78642e-07 -9.43466e-06 -1.86338e-05 
77 2 40.6639 25.7402 5.3859 1.27417 -0.624427 -0.521588 -1.38298e-05 3.86223e-05 -9.11697e-05 
78 1 27.6288 24.4786 48.635 1.66798 1.30303 -2.72737 6.3616e-06 2.65256e-05 2.80059e-05 
79 2 1.34286 43.5314 31.8484 -0.187836 -0.168366 -0.384526 -4.41165e-06 -2.52647e-05 1.99979e-06 
80 2 4.36924 13.2021 1.89055 0.712516 -1.12972 1.4883 4.79423e-06 -4.39743e-05 -2.68845e-05 
81 1 21.9918 28.6044 28.2377 4.035 -1.55996 -0.39176 -1.01529e-05 8.86988e-06 7.85622e-05 
82 1 5.91844 12.5954 29.0965 1.54114 0.386131 -0.630559 1.04955e-05 -2.09483e-05 1.07975e-05 
83 1 16.9803 41.7766 15.5294 -0.952906 4.90351 -0.719989 -1.80811e-06 -5.97146e-06 -4.19084e-06 
84 2 52.9336 2.01704 41.3381 -0.165498 1.47941 -0.451103 1.98887e-05 -2.67401e-05 -1.59516e-05 
85 2 8.74458 32.2292 22.6406 -0.873593 1.24172 -0.242802 -8.10831e-06 -3.20405e-05 -4.40815e-09 
86 1 37.8286 29.6836 19.6371 0.752952 -0.138743 -1.51973 1.03203e-05 2.79507e-05 1.68576e-05 
87 2 34.8226 20.6363 24.3518 -0.737994 -1.4371 3.21738 -7.62309e-06 2.63685e-05 -1.36576e-05 
88 1 19.5084 46.4928 48.9679 1.21859 -2.5906 -2.14806 -8.2595e-06 2.09788e-05 1.95927e-05 
89 2 37.0177 36.0874 15.4426 -1.89701 -1.03339 -1.33329 -2.37315e-05 3.61585e-05 2.82346e-06 
90 2 51.4849 8.83982 26.0009 0.75615 -0.197016 0.0533491 1.38797e-05 -1.23623e-05 -2.28859e-05 
91 2 12.7242 10.9045 15.3859 -1.20484 0.283328 -1.21829 1.07677e-05 -4.53593e-05 -2.0842e-05 
92 2 21.8258 50.0401 1.99722 -0.261681 -0.3172 0.94042 -1.11788e-06 1.34548e-06 7.93948e-06 
93 1 13.5477 50.6955 40.8779 -2.4319 1.32637 3.30867 9.23655e-07 -1.04368e-05 5.63469e-07 
94 1 50.2973 33.9391 10.7334 -3.85911 1.65051 -0.121928 -3.51495e-06 -2.49372e-05 4.67079e-06 
95 1 44.2397 33.1336 10.5157 2.37191 1.69679 4.87922 3.27554e-06 8.13181e-06 1.81127e-05 
96 2 42.3891 32.5422 21.6474 -0.232549 -0.810284 0.231364 -1.93962e-05 1.32616e-05 -6.59906e-06 
97 1 24.4586 15.4968 18.3142 -0.505916 -3.1802 -0.490579 -5.22788e-05 -3.94407e-05 6.19815e-05 
98 2 16.0626 9.78304 1.64858 -0.491327 -0.196399 -0.0642288 8.05666e-06 -1.17205e-05 -1.64299e-05 
99 2 51.8087 7.84237 54.7353 2.26193 -0.557789 0.563375 1.94605e-06 -1.97446e-05 -2.43995e-05 
100 2 2.21699 49.5489 48.9739 0.330026 -0.168973 0.47397 2.83245e-06 -3.22628e-05 -7.4137e-06 
101 2 47.1509 14.7422 27.7058 -0.799384 -0.182511 1.72568 2.03697e-05 8.57101e-06 -1.73031e-05 
102 2 20.3732 8.49337 0.917138 -2.11817 -1.23944 -0.0647479 5.89103e-06 -7.43108e-06 2.09839e-06 
103 1 39.2696 28.5194 44.671 -0.875958 3.71944 -1.03349 -8.28091e-06 2.69784e-05 6.14082e-06 
104 1 25.7227 37.4551 11.5353 -1.56967 -1.18128 -0.003273 -3.20682e-05 2.272e-05 4.36897e-06 
105 2 5.203 6.30077 48.1914 0.158048 -0.640136 -0.753784 1.25155e-06 -2.01997e-05 -2.03359e-05 
106 2 47.3491 46.1217 55.8177 -0.423889 0.524959 0.80907 -5.83478e-06 -1.01583e-05 1.43607e-05 
107 1 40.8468 48.6858 36.8479 3.72559 -1.23513 -2.89928 -4.0033e-06 1.77226e-05 1.40895e-05 
108 2 29.6654 13.949 29.4356 -1.30664 0.0208856 -0.307487 3.27002e-05 4.47838e-05 -1.89851e-05 
109 2 49.6579 13.7898 51.1205 -1.43258 -0.902506 2.36574 6.31795e-05 -2.50488e-05 -4.16082e-05 
110 2 0.855412 41.6339 44.4877 -1.50577 -0.521425 -0.204402 -1.69834e-05 -2.5218e-05 1.03996e-05 
111 1 26.1992 48.7426 25.2418 -2.25639 -0.656142 0.514949 5.99857e-07 1.64072e-05 1.61362e-05 
112 2 1.2935 27.979 46.1951 0.468396 -2.02937 0.15794 -9.8072e-06 -3.77279e-05 -9.0949e-06 
113 1 42.852 13.2362 8.45473 -0.518473 -1.30711 -0.26385 -1.05445e-06 -3.74204e-05 4.19409e-05 
114 2 2.97875 37.342 25.6274 -2.73771 -1.60023 -0.140342 -7.81029e-06 -3.93732e-05 1.26523e-06 
115 2 1.48496 41.7677 6.9352 -1.58768 -0.808488 3.1258 -1.31242e-05 -4.10366e-05 -1.13665e-05 
116 2 45.9775 54.2041 26.3458 -0.142846 -0.195763 0.355184 -1.86584e-05 5.24062e-05 -5.46519e-05 
117 2 49.1383 14.0375 45.4078 1.48156 0.41718 -1.01577 7.6857e-06 -1.57577e-05 -2.87093e-05 
118 2 29.6211 34.886 38.3218 0.435985 0.96472 1.17185 -1.32848e-05 5.77667e-05 2.90819e-05 
119 2 52.9293 0.755624 21.7744 0.0139891 0.787411 0.818968 2.04301e-05 -2.3549e-05 1.10793e-05 
120 2 15.2599 20.8325 55.4937 -0.13288 -1.04124 1.04724 -1.05751e-05 -1.89755e-05 -2.08934e-06 
121 1 41.7655 2.87487 41.1944 -0.624747 1.72248 0.91361 2.0657e-05 3.25993e-05 -1.09209e-05 
122 2 21.0737 48.0016 9.32985 0.434823 -0.582477 2.20691 -4.91634e-06 3.42303e-06 9.87459e-06 
123 2 18.5058 41.2831 9.01233 -0.396982 1.42399 2.0307 -2.02175e-05 -4.22289e-06 1.5796e-05 
124 2 4.30039 40.6945 37.435 1.05011 2.41573 0.12586 1.23052e-05 -2.07118e-05 -4.67631e-06 
125 1 50.5273 34.9866 17.9961 -0.395443 0.168659 -3.56378 -3.64206e-06 -1.06204e-05 -7.26132e-06 
126 1 17.4038 41.5875 28.0121 1.74554 -3.86676 -1.90867 -1.18653e-05 4.20772e-06 2.8409e-05 
127 2 28.5888 6.62229 24.0544 -1.96443 -1.07058 1.56265 4.33005e-06 3.67413e-05 -1.48376e-05 
128 2 43.1265 43.8253 7.19205 -2.53797 -0.859505 -1.3984 4.82967e-06 4.31301e-06 1.42691e-05 
129 2 4.219 10.4104 46.0433 -0.0978626 0.468768 -1.0092 1.54325e-05 -3.29154e-05 -2.05418e-05 
130 2 52.4188 30.1668 29.7276 0.73725 -3.05123 0.337481 -2.29876e-05 -6.52113e-06 -5.32027e-06 
131 2 41.5335 55.8624 41.5875 0.259697 -0.244274 -1.2795 -6.31399e-06 2.34838e-05 -3.98902e-06 
132 2 25.7841 23.3901 30.611 0.403831 1.88456 -2.19062 7.38166e-06 -6.24367e-06 3.06487e-06 
133 1 41.0883 25.8334 47.839 0.0458571 -2.42337 5.46996 -1.65936e-05 5.85503e-05 3.05387e-06 
134 2 17.0867 46.2961 45.4381 -0.692096 -0.286768 -0.292242 -1.79616e-06 7.317e-06 -2.89944e-07 
135 2 28.7299 47.2146 33.8444 -0.715496 0.557512 -1.02214 -1.13794e-05 4.5684e-05 1.69492e-05 
136 2 15.1841 54.1837 27.872 -1.38808 -0.894008 0.727035 2.37005e-05 1.21539e-05 -4.86999e-06 
137 1 14.1677 34.5826 28.9375 -1.3913 -1.69679 -2.23935 6.3252e-06 -1.53104e-05 2.66682e-05 
138 2 20.0142 4.15228 39.7649 2.62328 -1.86252 -0.310909 -6.82066e-06 3.41366e-05 8.32355e-06 
139 2 22.0171 14.2397 52.787 -1.0311 -0.940256 -1.61168 -2.63425e-06 -2.39685e-06 -9.11512e-06 
140 1 12.3997 54.4035 39.2535 -0.266224 -1.68839 -1.83663 -4.61711e-06 -2.41496e-05 -2.48853e-06 
141 1 50.2081 7.60042 10.3364 2.92156 1.56322 -4.98838 2.38122e-05 -3.80022e-05 -1.88619e-05 
142 2 12.9905 18.7324 31.9299 0.710387 0.52208 -0.31522 1.50301e-06 -1.24062e-06 -1.53025e-05 
143 1 30.1814 25.5654 49.2742 0.998885 1.37241 -3.14293 1.12491e-05 2.04936e-05 2.10612e-05 
144 2 18.1751 35.5338 24.3835 1.49475 2.30934 -0.277654 -1.46622e-05 -6.62789e-06 1.61161e-05 
145 2 48.7673 55.8482 9.65226 0.757756 2.85852 -0.841678 9.09681e-07 -2.39281e-05 -5.37975e-06 
146 1 3.29457 30.5797 7.44988 -0.17112 0.677726 0.0307364 -1.32331e-05 -4.03098e-05 1.44871e-05 
147 2 26.3318 13.6633 40.6558 -0.43312 -0.789097 -0.269911 3.54611e-06 4.04003e-05 -4.92416e-06 
148 2 28.8369 4.71523 11.4609 0.630524 0.101691 -1.6492 9.05925e-06 1.24451e-05 -1.99829e-05 
149 2 31.5894 30.767 52.8868 -0.93467 1.23597 1.22064 -2.12965e-05 3.81081e-05 1.85961e-05 
150 2 40.6185 4.77384 49.9818 0.22049 1.06643 1.97024 2.5923e-05 2.79246e-05 -6.76934e-06 
151 2 43.7535 36.5217 15.3366 1.64607 0.901502 -1.37093 -1.55798e-05 1.12408e-05 3.21296e-05 
152 2 22.7163 50.1754 49.1145 -1.38187 0.0333246 1.33963 1.20017e-06 8.06954e-06 4.67702e-06 
153 2 7.91243 15.7295 9.36951 -0.296442 -2.20048 0.138634 -8.4615e-06 -5.03607e-05 -1.97385e-05 
154 1 16.8761 4.9227 0.838188 -1.1997 -0.331781 1.0218 6.36528e-06 -2.22248e-05 -1.04425e-06 
155 2 28.1862 51.0542 34.2474 1.08221 0.675295 0.986621 -1.38578e-06 2.79415e-05 2.08484e-05 
156 2 42.1497 43.7547 40.6669 -0.0376576 -0.0406162 0.221978 -1.01695e-05 3.23749e-05 1.58903e-05 
157 1 49.4073 6.15756 39.2323 1.4852 1.24601 1.6242 1.05525e-05 -1.56495e-05 4.7448e-07 
158 2 43.1771 22.8841 45.419 0.52242 0.699506 -1.49709 -1.13641e-05 -1.05743e-06 -3.28687e-05 
159 2 18.0782 22.4894 40.2883 1.0713 -1.31676 -0.784482 -1.86324e-05 -6.27994e-06 -1.73423e-05 
160 2 31.3135 26.3563 40.0992 -1.20755 1.25313 0.19049 -1.64513e-05 3.51387e-05 2.21916e-05 
161 2 23.5005 11.9442 22.5875 -0.216253 0.889664 0.0903851 3.44906e-05 -7.74031e-06 -1.84155e-05 
162 2 36.9723 29.2649 28.1958 -1.31887 -2.02465 -0.0560954 -1.93558e-05 4.90127e-05 6.64537e-06 
163 1 24.9443 36.1908 25.0002 0.801553 -1.19216 -1.76597 -5.57677e-06 3.60494e-05 1.63092e-05 
164 2 43.0227 52.7075 46.9462 0.10305 -1.52304 0.089675 1.37023e-05 1.26674e-05 4.20509e-06 
165 1 46.9111 53.0862 29.3967 3.71481 -0.441141 -4.28979 4.91849e-05 2.18477e-05 0.000119789 
166 1 35.6231 43.3082 31.3445 1.46271 0.10781 2.16146 -2.59741e-05 4.59284e-05 3.9133e-06 
167 2 11.428 3.29511 10.3471 1.82618 0.278727 0.490575 1.17305e-05 -3.40503e-05 -2.0841e-05 
168 2 20.5796 25.1316 55.8576 1.33185 0.594447 -0.931477 -1.11713e-05 -6.29219e-06 -3.59328e-06 
169 1 51.2591 14.8059 43.9536 -0.318095 -2.14611 0.848549 1.45382e-05 1.33656e-05 -3.22289e-06 
170 1 14.9667 55.5876 38.7935 -1.01381 -0.615399 -0.046758 1.45963e-06 4.34954e-05 -5.29689e-05 
171 1 23.9325 41.6009 44.564 1.34726 3.79278 2.84211 -4.71364e-05 3.96931e-05 3.22664e-06 
172 2 51.1403 45.4888 2.39595 -0.947658 0.724788 2.26332 -9.82783e-07 -1.21957e-05 -3.18167e-06 
173 1 46.1093 49.4566 21.2566 -2.42959 1.74092 -2.76721 9.31616e-06 5.18186e-06 1.22504e-05 
174 2 1.42187 17.864 45.477 -0.581295 0.776046 0.0247065 -1.19612e-05 -3.0562e-05 -2.18079e-05 
175 1 44.2655 27.1404 45.007 -0.75725 0.97965 -1.31628 -1.27503e-05 2.33113e-05 2.10833e-05 
176 2 35.3094 28.9428 34.7672 0.0901443 2.17071 -0.0834626 2.78588e-06 2.92955e-05 -2.33878e-06 
177 2 11.9498 26.9667 43.638 -1.33854 -0.400826 0.436819 -9.51838e-06 -2.70909e-05 3.93e-06 
178 2 9.48663 20.9673 39.6373 0.182607 0.221082 2.20571 -1.25684e-05 -3.82127e-05 6.55363e-06 
179 2 37.283 20.6105 31.9812 -0.287435 0.573979 -0.620732 -9.51963e-06 3.82899e-05 -3.36196e-06 
180 2 6.38777 2.22196 40.9379 -0.0274982 -0.0218179 -0.603558 1.75894e-05 -3.22762e-05 -2.2793e-05 
181 2 48.574 28.936 37.6619 0.304982 -2.26806 -0.53078 -3.05332e-05 5.32238e-06 2.02973e-05 
182 1 13.8169 11.0616 1.50602 0.229047 6.40173 5.17531 -1.57891e-06 -1.90903e-05 -1.42815e-05 
183 2 5.0519 14.704 40.4902 1.47991 -2.70927 0.197048 2.20699e-06 -3.14528e-05 -1.0213e-05 
184 2 43.341 46.7312 11.9107 -0.587706 -0.923999 -0.290631 -7.83833e-06 2.65675e-05 2.40348e-05 
185 1 49.3685 22.5804 4.18225 0.274089 -0.704533 -0.812749 3.91296e-06 -7.27268e-05 -6.35038e-05 
186 1 36.3051 37.7839 33.6275 2.57242 -1.64602 0.303323 -3.77117e-05 3.0902e-05 3.82668e-05 
187 1 39.946 53.2182 5.20514 -0.0402102 -5.13768 1.20999 2.20093e-06 1.1058e-05 1.06104e-05 
188 1 17.1173 10.0117 13.2988 -0.408678 3.44924 2.12335 1.76716e-05 -1.10755e-05 -3.53531e-05 
189 1 17.8622 20.825 32.3808 -1.86177 3.18262 -1.36998 1.59569e-05 -1.27803e-05 -6.94297e-07 
190 2 19.5234 55.7595 26.1531 -0.37501 -1.4737 -0.0450215 3.99939e-06 -8.9821e-06 5.49447e-06 
191 2 9.15144 40.7879 8.11624 1.22319 1.13927 0.854076 -8.47331e-06 -3.22122e-05 -3.34919e-06 
192 1 12.2827 40.4137 12.7792 -1.68086 2.00959 2.08514 -1.58117e-05 -4.4981e-05 1.63191e-05 
193 2 30.1271 36.9219 26.8886 -1.34917 -1.38637 0.200965 -8.69019e-06 4.09091e-05 4.19951e-05 
194 2 41.7084 34.1468 1.92712 2.14749 0.678372 1.43598 -1.23588e-05 3.29057e-05 3.54238e-05 
195 1 7.15112 36.0952 34.7287 -1.93707 -0.963628 -2.45692 -3.56082e-06 -3.09302e-05 6.23562e-07 
196 2 8.87535 8.3232 6.33744 -0.139741 1.06198 -0.637943 4.39182e-06 -2.8747e-05 -2.40178e-05 
197 2 38.5584 18.1031 20.8326 0.124729 -1.0232 1.69847 4.39611e-07 4.41001e-05 1.98712e-08 
198 1 39.497 13.3826 41.2085 -3.9726 -2.93533 -2.91306 -3.43789e-06 2.49974e-05 1.53448e-05 
199 2 21.8365 26.3487 12.778 -0.75653 0.921572 -1.78192 -1.77555e-05 -1.68612e-05 2.03765e-05 
200 1 6.38912 8.95332 8.67824 1.59877 -1.99793 0.817928 -8.40408e-07 -4.99645e-05 -1.14274e-05 
201 1 25.728 35.1113 44.0806 2.68246 2.81387 0.467631 2.38454e-06 2.31564e-05 4.18123e-06 
202 1 18.8736 23.6772 6.6928 -2.38245 2.61222 -0.224562 1.19242e-06 -2.30859e-06 7.31115e-06 
203 1 15.2059 50.5456 32.8075 1.58982 -0.581387 0.686413 4.47844e-05 -9.87487e-06 3.88999e-05 
204 2 4.27703 41.5383 25.7206 1.843 -0.84996 0.506465 -2.96903e-06 -3.15087e-05 5.20068e-06 
205 2 6.42834 28.49 40.4966 -0.234257 -0.288735 -0.909282 -5.33282e-06 -3.43203e-05 -5.36743e-07 
206 2 49.2719 22.2817 11.3355 -1.49719 1.69841 -1.01373 -3.51982e-05 -1.90897e-05 -3.51607e-06 
207 2 18.0035 25.1155 38.9223 0.0136827 -0.474592 1.14602 -8.41473e-06 2.09488e-06 -1.04072e-05 
208 1 0.9106 7.61737 17.8381 2.75903 4.53575 0.568374 1.86208e-05 -4.79085e-05 -2.07839e-05 
209 1 19.682 2.29547 18.225 2.25953 -1.68301 0.27708 1.16127e-05 -4.53185e-06 2.11746e-05 
210 2 40.7165 25.8886 2.34039 1.83926 1.0757 -1.63562 6.15471e-05 -4.65261e-05 3.8493e-06 
211 1 50.5739 7.9042 14.5332 -1.44433 -0.0122063 -1.95872 1.81067e-05 -2.42203e-05 -1.96768e-05 
212 1 23.577 27.1934 27.0787 0.0406305 -2.21132 3.21915 -6.09989e-06 2.90032e-05 4.24194e-05 
213 2 47.5259 24.3325 42.9468 0.395819 0.10089 -0.841284 -2.56646e-05 1.87495e-05 -2.44252e-05 
214 2 29.0762 25.5746 38.0837 0.0633747 -2.33067 -0.268711 -1.66059e-07 2.99887e-05 2.36302e-06 
215 1 15.9417 21.4344 28.1459 3.15172 -1.30131 -0.856588 -1.45384e-05 -8.10831e-06 -5.19093e-06 
216 2 51.7985 35.205 35.9336 1.68675 1.10075 -0.597796 -1.57384e-05 -8.84025e-06 -4.13382e-07 
217 1 9.40777 37.6727 22.2385 -1.38096 -2.95534 2.85523 -2.20441e-05 -3.6329e-05 -4.20313e-06 
218 2 40.5242 40.329 36.3447 -1.31606 -0.146549 0.87407 -9.83746e-06 2.10813e-05 -2.93074e-06 
219 2 9.06838 36.4413 5.204 1.617 -1.17697 -0.431008 -4.80544e-06 -4.16321e-05 -2.94758e-06 
220 1 41.868 50.0937 43.62 1.73059 -2.90298 -2.29907 -1.00673e-05 3.544e-05 1.668e-05 
221 2 20.2222 18.7355 48.2289 0.568275 -0.218693 0.473342 1.08763e-05 -1.23839e-05 -2.09569e-05 
222 2 20.6663 34.3223 45.9918 1.21057 -0.322015 1.28475 -9.1582e-06 1.21275e-05 1.33859e-05 
223 2 52.4513 53.1364 8.47644 0.738821 2.16726 -0.130871 8.2372e-06 -2.60425e-05 -5.76406e-06 
224 1 55.675 39.6434 50.8799 -0.0464445 -5.05966 -0.128388 -1.43202e-05 -1.55024e-05 -6.20108e-07 
225 2 36.304 45.3419 8.2271 -0.48214 -1.03586 1.2583 -2.59406e-06 2.03277e-05 2.11398e-05 
226 1 12.4582 4.64713 14.3947 2.33877 -0.571941 -3.70053 2.04044e-05 -3.26929e-05 -2.20488e-05 
227 2 7.11437 7.8159 37.107 0.677116 -1.37482 2.84949 2.89115e-05 -2.84026e-05 -4.49373e-05 
228 2 11.2534 17.3766 4.56525 1.18745 0.875824 -0.859122 -1.15321e-06 -3.69814e-05 -1.36635e-05 
229 2 3.10985 19.8383 44.8042 0.688865 -0.19612 -2.09936 -4.88289e-06 -1.79952e-05 8.52987e-07 
230 2 51.8385 27.8222 53.2093 0.987348 -1.94764 -0.629086 2.02593e-05 -3.65967e-05 -6.42472e-06 
231 2 47.7734 12.5028 7.20581 0.312524 0.336618 0.81791 2.01232e-06 -1.15164e-05 -3.78846e-05 
232 2 47.8871 36.6317 54.4293 -0.949552 0.471009 0.920968 -2.45392e-05 1.78526e-06 -1.76763e-06 
233 2 1.96171 18.2523 24.2399 0.146096 -0.17041 -1.95151 -2.01278e-05 -6.73107e-05 -2.17864e-05 
234 2 2.92748 50.4644 15.9237 1.73016 -0.871894 -0.864052 7.79912e-06 -3.53179e-05 -9.1916e-06 
235 1 45.0251 37.8505 7.9907 0.439642 1.12533 -1.46989 -2.45421e-06 4.00261e-05 4.70726e-05 
236 1 43.2733 41.0253 11.5749 -1.65084 -5.05239 1.58678 -2.25098e-05 2.17714e-05 2.30129e-05 
237 2 36.4453 49.0088 30.7202 0.173235 0.580973 1.99633 3.48208e-06 2.77768e-05 3.16008e-06 
238 2 43.8225 33.2492 7.9791 -0.170174 0.0873829 0.120408 -1.18001e-05 6.86242e-06 5.50882e-05 
239 1 47.6299 12.2103 21.989 2.89289 2.03054 -0.4409 2.19248e-05 -1.58986e-05 2.32166e-06 
240 2 1.32068 12.7192 17.0595 -0.0999847 -0.327807 -1.43702 -1.09693e-05 -4.16742e-05 -2.29497e-05 
241 2 3.17698 11.6665 31.3221 0.140996 -0.509986 0.411359 1.60183e-05 -1.20509e-05 -7.24645e-05 
242 1 54.7891 16.1809 7.53951 -0.295071 0.208521 0.474694 1.86823e-05 -2.56223e-05 -4.48479e-05 
243 2 23.9046 55.4337 25.0535 -0.756277 -1.46979 -2.0984 8.5217e-06 2.51941e-05 -2.44634e-05 
244 1 4.39746 34.5226 55.5835 3.14601 1.58911 0.616173 4.56421e-06 -2.21456e-05 3.55824e-06 
245 2 3.52537 18.8262 39.4136 -1.27113 0.214443 2.27716 7.17371e-06 -3.76465e-05 6.64391e-06 
246 2 38.3919 8.46063 15.1597 -0.301154 -0.536122 0.666315 -1.29089e-05 1.14133e-05 -1.67358e-05 
247 1 27.8352 17.5226 53.9814 -1.95739 4.15752 -2.34989 6.14842e-06 3.34542e-05 1.01977e-06 
248 1 4.34963 44.2163 42.8628 0.317029 -0.175292 -0.025187 -3.83358e-06 -3.69404e-05 -5.08385e-06 
249 2 51.681 48.7366 30.3821 -1.15202 0.203543 -0.997068 -1.61274e-05 -2.6037e-05 1.66074e-05 
250 2 36.292 37.5414 3.35123 -2.13835 -0.261713 -0.475003 -2.41445e-05 9.99175e-06 -3.16004e-06 
251 1 25.6121 48.3464 42.6972 -2.90778 2.10382 2.36237 -9.67484e-06 4.19552e-05 3.32377e-05 
252 2 45.9116 20.0514 13.5745 0.98707 -0.5583 0.665615 -1.48683e-06 3.67019e-06 3.19798e-05 
253 1 55.2044 9.3286 30.7468 -2.5727 0.814399 -1.85052 -7.34745e-06 -3.86959e-05 -3.3017e-05 
254 2 14.8052 18.734 39.4989 -0.280771 0.131958 0.691106 5.80524e-06 -4.76391e-06 -1.63599e-05 
255 2 32.8499 14.1096 17.1799 -1.59204 1.25623 -0.161618 1.17686e-05 3.15912e-05 7.91114e-06 
256 1 22.9278 49.5917 7.64014 -1.47034 1.36549 -2.56834 -4.37346e-06 2.75279e-06 5.39363e-06 
257 1 29.5877 29.7117 54.8779 0.805112 0.572485 -1.09288 2.4208e-06 3.94671e-05 5.82453e-05 
258 2 16.1476 31.0341 16.8917 0.844909 -1.8121 0.330002 5.0281e-06 -1.82546e-05 4.51323e-06 
259 2 23.9214 20.1535 9.93483 -3.11 1.08267 0.899877 1.47182e-06 3.07917e-05 1.21207e-05 
260 1 11.7727 19.7534 51.7442 5.13366 -2.43375 1.25612 -1.12876e-05 -2.40973e-05 -7.70528e-06 
261 1 51.2418 12.1928 49.6942 -1.2556 -0.523719 -0.473289 1.04678e-05 -7.1392e-05 -4.64913e-05 
262 1 45.0877 27.4072 4.67996 0.21853 1.53481 0.814663 2.95355e-05 1.68481e-05 3.12733e-05 
263 2 33.2718 22.2838 16.5771 -0.375872 0.871263 -1.422 -6.56409e-06 4.15772e-05 -2.26269e-05 
264 2 18.8524 33.3856 51.5167 -3.24241 -1.6577 0.407419 -1.09926e-05 -6.20482e-06 1.96511e-05 
265 2 3.7614 17.9407 17.2406 -0.983683 0.557544 -1.9267 -4.01474e-06 -3.50214e-05 -2.4189e-05 
266 1 31.3444 24.397 45.5422 -0.482712 -1.39064 -0.370455 -1.92199e-05 2.01208e-05 2.08288e-05 
267 2 38.7464 2.15965 24.4831 0.423168 0.680253 1.0258 2.36496e-05 1.85553e-05 -3.05982e-06 
268 2 51.7993 42.8018 30.6597 -0.448994 0.774278 0.611326 3.35304e-06 -2.11796e-05 7.4733e-06 
269 1 44.2984 54.8035 53.2334 -1.21201 0.346037 -0.907356 6.48501e-06 -7.22877e-06 -1.2411e-05 
270 2 4.15162 14.8311 37.6318 0.260032 -1.89724 -0.461663 9.94453e-06 -3.90842e-05 -1.24776e-05 
271 2 27.7401 37.6819 15.4078 0.119638 0.314833 0.966101 -6.33023e-06 3.1367e-06 9.55951e-06 
272 1 54.784 14.0898 27.6854 -2.40729 -1.57712 1.17031 -4.75298e-06 -1.61439e-06 -1.6209e-05 
273 2 42.1316 14.3908 24.8004 -0.181302 -0.308228 0.308727 -2.53532e-06 2.18098e-05 -6.38269e-06 
274 1 18.4973 10.3681 32.7393 3.6076 -2.55566 0.720124 -3.31541e-06 9.30909e-07 -1.30858e-05 
275 2 14.6694 53.151 19.5261 1.36244 0.301776 -1.8054 -4.96486e-05 5.79639e-05 -1.19692e-05 
276 2 13.7177 8.70564 56.132 0.911847 1.48206 -0.355396 2.2815e-06 -1.20061e-05 -2.22109e-05 
277 1 4.21229 2.05986 2.24073 1.95365 -4.69536 -0.514393 1.03809e-05 -4.21894e-05 -2.88445e-05 
278 2 5.45163 37.7764 29.5764 0.15684 -0.825155 -2.3266 -5.76093e-06 -2.81713e-05 4.0271e-06 
279 2 15.2045 19.6951 26.5142 -0.99794 -0.30132 -0.767248 5.28316e-07 -1.67514e-05 -1.05614e-05 
280 2 33.7466 32.5591 32.991 0.918157 1.00984 -1.56906 -1.8624e-05 3.99312e-05 1.04314e-05 
281 2 25.5512 19.816 32.1025 -0.331958 0.642703 0.148092 2.1661e-05 2.59198e-05 8.26507e-07 
282 2 31.262 28.9543 26.6342 0.952502 1.58192 -1.12685 -2.0077e-06 4.81681e-05 2.25989e-05 
283 2 25.3974 32.1453 35.7393 -2.9834 -1.28343 0.0768728 -2.01634e-06 2.92172e-05 2.77709e-05 
284 2 27.2579 10.9514 49.26 -0.503363 -1.59733 3.01605 4.24842e-06 2.14714e-05 -1.18537e-06 
285 2 41.3258 54.9365 54.2575 -1.37395 2.24148 -0.23278 1.98578e-05 2.03027e-05 -1.11885e-07 
286 2 13.6548 26.0106 0.764101 0.44922 1.20475 0.623183 -1.18138e-05 -1.83847e-05 -7.20691e-06 
287 2 45.3459 46.1138 31.7542 1.17349 0.584853 -0.221988 1.30964e-05 2.36162e-05 1.1336e-05 
288 2 33.278 19.084 22.8449 1.27525 1.18148 -0.444612 1.9158e-05 4.13464e-06 4.59437e-06 
289 2 32.6424 54.699 42.9539 -1.27419 -0.613389 -0.100881 -1.61549e-05 2.67438e-05 9.0644e-06 
290 2 24.6303 11.6509 15.7924 0.799189 0.263294 0.554142 3.55273e-06 3.90488e-05 -1.536e-05 
291 2 10.7241 37.3086 48.827 0.359266 -0.289067 -0.376779 -1.75007e-05 -2.69203e-05 1.18668e-05 
292 2 21.5206 53.8769 46.9279 -2.3373 0.581839 -0.532751 6.37522e-06 1.2251e-05 1.17743e-05 
293 2 38.4156 35.5675 38.3958 0.262275 -0.165761 0.166289 -2.32752e-05 3.78349e-05 1.56939e-06 
294 2 48.2672 32.3231 32.9129 0.686525 0.613311 0.667974 -1.14188e-05 -9.48273e-06 -3.78436e-06 
295 1 45.3379 3.12425 25.7817 -1.2065 0.552541 -0.0249055 1.25937e-05 1.3685e-05 -4.78811e-06 
296 2 42.417 20.2417 19.9447 -1.35888 0.577447 -0.559395 1.62903e-05 1.36199e-05 -1.61471e-05 
297 1 28.6665 23.6558 42.1691 -0.212723 -2.20497 1.20217 5.82131e-06 2.81818e-05 3.32806e-06 
298 1 1.94125 26.4669 14.4688 1.4854 -0.766356 -1.64849 -1.06947e-05 -1.62243e-05 -4.70696e-06 
299 1 38.694 32.6507 45.4406 -0.859433 -3.11445 -0.740062 -2.63908e-05 3.77465e-05 6.9986e-07 
300 1 14.4602 15.0524 34.0406 1.48146 3.47499 1.37309 2.67589e-05 -2.5302e-06 1.07275e-05 
301 2 45.5428 55.8552 19.4918 -0.530229 -0.985485 0.54296 2.53297e-05 -1.65392e-05 1.05652e-05 
302 1 34.3391 31.9376 23.907 2.13832 1.35039 3.90058 -8.63893e-06 3.30272e-05 4.74424e-06 
303 2 8.12179 27.9428 52.3357 2.87219 -1.39413 -0.484918 -1.48177e-05 -2.17849e-05 2.20667e-05 
304 2 19.4908 1.68302 12.7991 -0.151411 -0.697396 0.627897 3.23971e-05 -6.4842e-06 -4.82928e-06 
305 2 52.603 4.15068 50.6023 -2.61152 2.37401 -0.616225 5.58604e-07 -2.3024e-05 -2.69349e-05 
306 2 5.43077 49.3192 3.81395 0.480835 0.808486 -0.734651 -2.24179e-06 -2.89044e-05 -8.83417e-06 
307 2 1.57636 11.0427 51.5105 1.89634 -0.272949 1.0282 -1.68044e-05 -3.60226e-05 -1.99784e-05 
308 2 2.08319 49.3915 41.6889 0.643118 -0.463311 0.352443 3.03119e-06 -2.46379e-05 -2.32342e-06 
309 2 54.5574 18.481 3.87939 0.511762 0.532508 1.21916 -3.20102e-05 -2.34404e-05 5.37338e-06 
310 2 42.3912 18.6832 4.10839 0.466313 1.82505 -0.889212 -2.88192e-05 2.4934e-05 -1.70724e-06 
311 1 29.7931 23.9181 8.07061 -2.01977 -0.713203 0.0367158 -8.65624e-06 3.12447e-05 -7.44235e-06 
312 1 13.6875 28.0635 20.9166 0.0841909 3.48861 1.51028 -3.90623e-06 -2.35895e-06 1.21109e-06 
313 2 24.6008 53.9608 28.0126 -1.82476 0.716695 -1.21136 6.31003e-06 2.28838e-05 5.22612e-06 
314 1 51.6035 44.6292 28.1363 -2.16555 -2.49668 -0.515662 -5.44237e-06 2.30669e-06 1.71182e-05 
315 2 29.0694 15.8937 20.4636 0.997517 -0.935319 -2.04762 -7.07254e-06 1.9663e-05 -7.77648e-06 
316 1 50.1681 23.8995 20.0083 -0.235857 0.485129 -0.280646 5.95688e-06 1.01923e-05 -1.00567e-05 