ITEM: TIMESTEP
35521149
ITEM: NUMBER OF ATOMS
11520
ITEM: BOX BOUNDS pp pp pp
-1.7079 51.8479
-1.7749 53.8819
-1.67339 50.8004
ITEM: ATOMS id type x y z vx vy vz fx fy fz 
1 1 39.3169 40.2991 41.3666 1.38014 0.702899 -0.176718 1.50654e-06 -1.42158e-05 6.04272e-06 
2 1 40.148 24.237 30.8116 -0.218451 0.0319643 0.540034 6.25305e-05 4.07209e-06 -4.08645e-05 
3 1 32.4549 39.4398 3.19543 0.275427 2.70576 -0.861467 9.33873e-06 -1.35026e-05 5.76691e-06 
4 2 -1.07049 5.25657 20.0055 -1.60156 1.63509 -1.62681 -4.54045e-05 -1.04363e-05 1.66154e-05 
5 2 43.8736 30.4316 15.2699 -0.703322 1.12835 -0.762221 2.8272e-05 -2.6015e-05 -1.18986e-05 
6 1 6.58802 21.8488 14.5401 -1.57005 1.59923 1.84805 -1.25747e-05 4.41833e-06 -1.36109e-05 
7 1 14.8976 53.042 26.7396 5.02988 -1.54612 0.140538 3.55117e-05 5.48725e-05 6.98403e-05 
8 2 41.7805 17.5778 0.195784 1.00937 2.43974 0.47651 3.1013e-05 -4.57217e-06 -1.74875e-05 
9 2 15.6654 38.0266 38.7837 1.93153 -0.34874 1.79619 4.14529e-06 -1.09368e-05 -9.27143e-06 
10 1 14.4294 43.0241 13.033 3.23665 -2.53425 -3.10313 -7.26364e-06 9.48218e-06 1.65391e-05 
11 1 1.39292 50.1309 4.15264 0.526669 -0.214547 1.88511 -1.11201e-05 9.2297e-08 1.4612e-05 
12 2 29.4793 16.528 20.628 -0.129218 -0.71529 2.13747 -9.35833e-06 -9.8538e-07 -2.99773e-05 
13 1 11.0476 42.3826 27.3547 -1.48836 -0.699271 1.58807 5.81106e-07 3.40178e-05 1.24523e-05 
14 2 27.6195 -1.0018 25.4851 2.39407 0.940086 0.909221 1.0306e-05 -2.75199e-06 7.63824e-06 
15 1 29.2832 3.04727 28.7142 0.697512 0.629917 1.36817 -2.12409e-05 1.39514e-05 -1.66438e-05 
16 1 25.1597 11.1204 33.5511 0.752736 1.61287 2.1458 -7.97136e-06 3.46688e-05 3.00033e-05 
17 1 32.0925 25.7357 3.3118 1.57321 -2.19001 -0.918567 1.82737e-05 -1.91767e-05 -3.38443e-05 
18 2 -1.47582 50.9039 43.7595 -1.1502 1.159 -0.353447 -1.02672e-05 -6.10663e-07 2.20069e-05 
19 1 27.2394 5.96219 33.783 1.34879 1.24247 -1.12512 1.8733e-05 1.52155e-05 1.65471e-05 
20 2 14.0217 0.884121 24.1386 2.93063 0.0117422 -0.584264 1.18271e-05 1.36258e-05 7.6468e-06 
21 1 49.8275 30.7499 34.0796 0.12316 0.425774 -0.600754 6.74477e-06 1.47865e-05 -5.34677e-06 
22 1 22.9889 26.8995 20.1629 -2.57948 -0.345702 -3.7636 2.29131e-05 -2.22135e-05 -2.37282e-05 
23 2 25.4238 33.3929 28.1515 -0.0292459 -0.241595 -0.765966 -1.39427e-06 -1.54005e-05 6.4259e-06 
24 1 16.0786 43.939 47.3688 3.18297 0.434287 -0.923131 1.22719e-05 7.6638e-06 2.10696e-05 
25 1 -0.130896 37.2753 48.7018 2.11719 0.945765 1.23001 1.12767e-05 -7.65954e-06 1.13001e-05 
26 1 31.5773 40.5056 24.0979 1.79186 -0.288073 1.09307 -3.04157e-05 -8.09883e-06 1.5746e-05 
27 2 36.7102 29.6045 29.8008 0.771535 0.0574429 2.03343 6.59117e-06 -6.19777e-06 -3.3427e-05 
28 1 22.9689 6.09911 41.8067 -1.34972 -3.46968 1.36601 2.60205e-06 1.38204e-05 1.76871e-05 
29 1 7.11258 9.99804 25.7511 -1.03421 -1.2331 -0.561388 -1.41982e-05 1.12999e-05 -1.45004e-05 
30 1 46.0363 11.4579 46.1652 -1.58676 -0.242632 1.17263 0.000107417 0.000126355 0.000118042 
31 1 48.6145 44.8462 5.96531 -0.184965 2.56556 -0.73843 -1.80077e-05 6.98072e-06 2.47e-05 
32 2 -0.800758 42.1028 42.5334 0.45436 0.373248 1.23198 3.62871e-06 7.61086e-06 4.51237e-06 
33 1 11.8314 45.1803 38.0664 -2.17772 0.266888 1.74662 2.21603e-05 2.79086e-05 1.28198e-05 
34 1 38.8213 9.86437 35.2032 -0.830256 2.1607 -2.45553 -1.16005e-05 -9.51035e-06 -1.52214e-05 
35 1 11.8437 47.2504 17.3756 -1.07773 2.66129 -2.23032 -2.96272e-05 7.65284e-06 2.79597e-05 
36 1 48.1371 31.0746 1.24358 -0.193432 1.12275 -1.77614 1.08303e-05 1.36632e-05 -3.48165e-06 
37 1 31.0458 3.54644 2.51992 -0.219797 1.31427 -4.28467 -1.05607e-05 -1.22826e-05 2.33806e-06 
38 2 25.3822 39.2903 19.9821 -1.2691 0.672381 1.3819 -5.67513e-06 -4.2449e-05 5.94513e-05 
39 2 24.8434 51.6809 16.753 -0.103734 -1.68936 1.39571 -1.81821e-05 -1.54158e-06 2.8021e-05 
40 1 17.5425 47.5325 8.28961 -1.71543 -0.45661 0.3341 -5.60033e-06 4.86163e-07 2.72076e-05 
41 1 39.2408 34.304 17.9625 3.77087 -0.0208819 -1.28406 5.91834e-06 -3.98078e-05 -3.03274e-05 
42 1 51.3511 -1.58927 50.007 -0.769643 -1.75076 -2.29718 9.86052e-06 9.42428e-06 -8.24706e-06 
43 2 19.2523 39.4102 20.6136 0.748578 0.333464 0.68078 -4.5117e-05 9.18987e-06 4.15406e-05 
44 1 23.2301 7.56846 22.9215 1.41481 3.45175 0.302307 -1.92539e-05 1.9914e-05 1.64697e-05 
45 1 0.991838 45.9199 15.6493 0.644625 3.67329 -1.74953 -7.10683e-06 1.41314e-05 2.84133e-05 
46 1 21.0336 28.357 3.85428 0.992848 -1.13036 -0.627749 1.97089e-05 -1.5591e-05 -1.85395e-05 
47 2 46.5247 13.4227 3.57759 -1.07367 -0.377458 0.835731 -2.43776e-05 4.07091e-05 7.19159e-05 
48 2 28.3983 17.7632 2.9406 -0.495901 -1.92637 1.26854 -4.04215e-05 3.14587e-05 -8.24959e-06 
49 1 39.4543 51.9455 21.8007 0.548784 3.29233 1.03391 -3.35983e-05 7.81331e-06 1.21234e-05 
50 1 23.4703 31.5844 25.2597 0.0523518 1.69001 -1.03168 -3.33479e-06 -2.41986e-05 -6.42637e-06 
51 1 21.2326 28.6048 1.45172 1.64829 -2.26272 -2.17251 2.923e-05 -1.71557e-05 -1.34193e-05 
52 1 26.8654 2.56115 4.76681 -1.21436 1.60256 -1.86785 -2.28938e-05 -2.87213e-05 1.65261e-05 
53 1 32.9134 1.74325 47.3187 -0.947008 -0.943715 2.40501 -9.46537e-06 -2.6063e-05 4.5029e-06 
54 1 25.3115 43.4046 19.3101 5.11702 -2.46236 1.10239 -2.74414e-05 -2.47239e-05 4.46625e-06 
55 1 19.1006 21.5849 42.8581 -0.953272 -2.5589 -1.83873 1.28488e-05 4.67748e-06 -2.95009e-05 
56 1 47.9454 19.8436 45.2215 0.484286 1.75989 -1.82247 4.09656e-06 -9.07058e-06 -1.23663e-06 
57 1 4.60279 45.4453 30.2084 -1.34368 -0.332201 -0.0603333 7.1817e-06 2.55853e-05 8.75238e-06 
58 1 24.2989 26.0251 22.9037 -1.97422 1.71812 -0.609981 1.27053e-05 -5.79176e-06 -2.42632e-05 
59 1 51.7402 40.6716 33.4976 0.802229 -0.961401 -1.39575 -2.65346e-06 1.36302e-05 1.50721e-05 
60 2 29.4226 37.6481 45.9297 2.21529 1.14567 -1.81072 6.80891e-06 -1.12642e-05 -1.53703e-06 
61 2 51.7625 6.91725 46.0019 1.39583 -0.0956825 0.149854 2.47161e-05 -5.75152e-05 4.75838e-05 
62 1 29.3029 43.8832 19.4403 -0.173432 1.71171 0.440265 -4.64837e-06 -2.93118e-05 2.00032e-05 
63 1 27.1388 45.4037 41.0033 -2.2872 1.18538 -1.30915 4.73144e-06 -2.22765e-05 -7.14062e-07 
64 2 9.04247 29.9506 41.115 1.60441 0.0047929 0.625084 1.35506e-05 6.0409e-06 -5.18133e-06 
65 1 46.1067 10.8199 2.37301 -3.87891 -0.100457 -0.920222 2.29287e-05 3.29941e-05 -0.000138026 
66 1 12.3152 47.9453 42.8895 -1.00894 1.58324 4.55573 1.00558e-05 1.29822e-06 2.02548e-06 
67 1 35.8846 2.74267 35.9687 -2.17399 -0.63759 -2.29891 9.61098e-06 -1.72706e-05 -1.75493e-05 
68 1 10.2406 13.3331 4.66763 -0.00900418 -3.6314 -1.69038 -1.0683e-05 -1.00913e-05 -1.38592e-05 
69 1 13.4742 19.0473 45.1803 -0.586008 -1.16844 0.551074 3.4364e-05 6.15118e-06 -3.19318e-05 
70 2 24.1996 40.2137 28.0914 -1.46314 -2.34885 0.463765 -1.24072e-05 -9.28782e-06 4.01496e-06 
71 1 42.449 32.3458 4.48861 -1.62924 -0.955398 2.29043 1.73541e-05 -4.62568e-06 -4.58068e-06 
72 1 5.25684 17.7947 36.0712 -1.89087 2.25647 -1.26975 1.6452e-05 -1.71741e-06 -2.75103e-05 
73 1 32.5749 35.1053 3.11613 6.05061 0.265383 4.06506 1.3006e-05 -2.45888e-05 -1.05865e-05 
74 1 46.2018 7.72853 13.4356 1.65407 -1.83587 -7.86111 6.13015e-06 1.69383e-07 -1.29987e-05 
75 1 3.32431 51.8642 13.8622 0.761577 -1.24031 -0.207882 -1.00287e-05 1.56848e-05 3.45866e-05 
76 1 34.9112 6.96492 50.598 -4.75962 3.64019 1.78073 -8.60787e-06 -1.53961e-05 -7.00387e-06 
77 2 38.3468 12.9097 10.2182 -0.887542 -1.23687 0.881045 1.886e-06 -1.78179e-07 -1.76267e-05 
78 1 18.3913 47.7466 18.4137 0.182714 3.44148 -3.14858 2.24035e-06 -2.46134e-05 3.57272e-05 
79 2 22.1402 11.3648 19.6613 -0.558532 -0.234347 -0.500351 -3.01811e-05 1.73609e-05 2.5608e-05 
80 2 44.4732 48.986 16.2729 -0.804613 -0.271626 -0.0605105 -2.34875e-05 3.9263e-06 1.07685e-05 
81 1 49.3236 47.1242 9.54561 2.58696 1.19433 -0.631022 -1.19726e-05 1.15314e-05 4.15537e-05 
82 1 17.1825 43.5098 43.2912 2.9235 -0.946296 -2.90315 -1.39749e-06 6.4506e-06 1.10895e-05 
83 2 48.6027 11.2961 2.76814 1.56528 0.470829 0.767123 -3.73624e-05 3.50382e-05 -5.8233e-05 
84 1 40.3183 31.0971 21.5565 -2.17504 0.73428 1.0959 3.5091e-05 -9.58794e-06 -1.26822e-05 
85 2 27.291 36.4178 30.9632 0.908184 0.255979 2.00071 6.54307e-06 -7.33467e-06 7.16839e-06 
86 1 0.48105 42.6306 4.07232 5.2656 -0.695179 -3.26871 -1.1515e-05 -7.12106e-06 2.70166e-05 
87 1 13.3069 7.87945 31.7574 -2.92088 -2.59468 -0.326189 -5.43487e-06 5.63207e-05 -4.29842e-05 
88 1 49.8336 39.8563 34.9989 -1.11664 -0.84214 0.211476 -9.18949e-07 1.16454e-05 1.7567e-05 
89 2 13.7772 9.00931 42.1772 -0.249406 -0.147612 1.57382 -1.81235e-06 -2.64767e-05 1.33092e-05 
90 2 41.9065 47.225 29.4409 -0.231899 0.643266 -0.203585 -5.70371e-06 -1.92288e-06 1.64364e-05 
91 2 5.77236 2.64463 13.8056 -0.209455 -0.725469 0.370739 -2.38182e-05 1.15502e-05 1.09876e-06 
92 2 0.0291027 43.4842 22.0796 1.63041 0.00641585 -0.687156 1.23175e-05 -1.03303e-05 3.10994e-05 
93 1 14.7034 7.64412 3.30692 -0.556629 0.565547 -3.46934 1.10292e-05 1.0619e-05 7.49934e-06 
94 1 4.75755 52.8913 43.1773 0.579287 2.48153 -1.68882 1.5465e-05 9.63821e-06 1.33918e-05 
95 1 28.142 37.2589 8.12055 -0.186476 -3.20063 -0.955228 -8.99128e-06 -1.58961e-05 1.05469e-05 
96 1 51.6329 12.0592 19.8705 0.0755353 -1.5327 0.942121 8.436e-06 6.2592e-06 -1.97397e-05 
97 2 47.7828 39.1745 1.84783 0.266303 1.67805 -0.308575 1.41942e-06 5.20806e-06 2.84223e-05 
98 1 19.7171 48.8689 20.1503 -0.0251494 -0.823915 3.80215 -1.99859e-05 3.53123e-05 1.67183e-05 
99 2 33.4709 36.8034 -0.768254 -0.151404 -1.23994 1.3217 1.71851e-05 -1.33209e-05 -2.38497e-08 
100 1 29.4078 41.5505 28.3868 2.29371 -1.59173 5.12361 -9.0966e-06 -3.17229e-06 1.38161e-05 
101 1 46.7484 38.0953 13.1289 0.920277 -1.40368 1.91679 -2.39619e-07 -1.35783e-05 -2.2827e-05 
102 2 19.8163 -0.69066 0.400538 -2.35655 -1.02097 -1.48898 -3.61872e-05 5.75781e-05 3.46004e-05 
103 1 0.831892 29.1215 31.3816 2.22801 1.23483 2.09173 2.6594e-05 1.6906e-05 -2.87201e-05 
104 2 4.48635 -0.103679 25.0587 -0.162423 -0.305777 1.6382 5.48327e-06 2.92825e-05 4.0012e-05 
105 2 5.00442 31.1595 44.612 0.0750658 0.638515 0.956886 1.00759e-05 7.26193e-06 -7.25729e-06 
106 1 38.9354 27.6091 23.8339 -4.10914 -1.12766 1.94624 8.82345e-06 1.4486e-05 9.98866e-06 
107 1 39.5548 0.36247 20.6793 -2.02592 0.432114 2.68276 -2.254e-05 -1.32735e-05 8.55046e-06 
108 1 41.4862 33.8318 48.3471 0.171823 1.86096 -1.43962 2.3447e-05 -1.09248e-05 -8.75905e-06 
109 1 31.9683 28.2395 2.56724 1.16195 -1.89224 -3.55283 9.0868e-06 -1.78869e-05 -7.37e-06 
110 1 27.6353 30.3812 45.8143 0.342431 2.77414 1.082 1.84865e-05 -3.10555e-05 -1.47738e-05 
111 1 17.5932 27.8547 4.43702 -0.0166762 -2.05906 0.884652 2.2137e-05 -2.64195e-06 -3.19647e-05 
112 1 42.3964 49.7189 24.6908 1.89882 -2.73204 -1.56835 -2.3521e-05 5.32017e-06 3.19121e-05 
113 1 4.3571 19.5244 28.8672 0.166044 2.55042 -1.09541 7.26927e-06 1.04856e-05 -7.86359e-06 
114 1 30.173 38.7941 24.8266 1.06927 -0.132162 -3.72073 1.15035e-05 1.97936e-06 2.28825e-05 
115 1 32.0202 49.2202 21.0649 2.92467 -1.25522 0.939371 -2.66034e-05 -6.65951e-06 1.58647e-05 
116 1 46.0454 49.7226 12.1815 -2.00848 0.290749 -1.84447 -2.0571e-05 4.9431e-06 1.90826e-05 
117 1 21.7257 44.9209 3.77118 0.288462 -0.704621 -0.766037 -4.60546e-06 -1.86536e-05 3.22123e-05 
118 2 25.3252 33.5148 -1.00263 0.396917 0.827106 0.155501 8.35976e-06 -2.07964e-05 -6.99635e-06 
119 1 6.9302 17.9589 50.5024 -4.47772 -2.54087 2.81096 3.50538e-05 6.7405e-06 -2.06319e-05 
120 1 49.3999 17.1269 27.6226 -0.716394 -1.88019 0.292536 1.04101e-05 9.93771e-06 -2.04609e-05 
121 1 36.2015 32.8498 7.48902 -0.565872 0.619 -0.293377 5.74295e-06 -2.07047e-05 8.30443e-06 
122 1 9.04358 36.7389 38.0513 -0.123065 -0.304998 0.116978 2.67117e-06 2.34132e-05 7.72811e-07 
123 2 19.4606 20.9962 10.3577 1.03662 0.564393 0.312445 -4.81161e-06 -7.35438e-07 -1.3759e-05 
124 1 3.77645 9.94885 40.3479 3.28905 1.19491 0.30673 4.36987e-06 6.48937e-06 -1.67077e-05 
125 2 12.3568 39.9684 15.3651 1.71531 0.198859 1.23375 -2.0578e-05 2.03219e-05 1.73803e-05 
126 1 2.92998 37.3313 18.912 -0.0259111 1.08612 -0.892251 -2.98696e-06 3.3075e-07 2.35298e-05 
127 1 37.2205 35.7918 48.0513 -1.39352 -0.601831 -3.3021 1.46922e-05 -1.85534e-05 -2.16468e-06 
128 1 4.72292 51.4963 -1.00585 -0.476212 -0.018657 -4.20974 -9.82073e-06 3.71831e-06 1.68579e-05 
129 1 26.1084 4.65054 10.6023 -0.363685 -0.337498 -4.37794 -6.54378e-06 -2.30576e-06 1.26568e-05 
130 2 49.5469 28.79 21.5126 0.198954 -0.0311532 -0.249878 -2.8704e-05 1.79649e-05 1.69272e-05 
131 1 13.2681 37.2452 11.3632 1.37734 1.28905 0.794064 -9.3622e-06 2.61491e-07 9.54778e-06 
132 1 35.2418 4.56995 2.52993 1.76407 -1.50729 -4.1288 -1.84459e-05 -1.5964e-05 6.90821e-06 
133 1 6.61276 13.1425 8.36145 -5.63308 1.28303 2.0988 -9.54283e-06 5.0743e-06 -1.00785e-05 
134 2 42.9684 40.2994 47.8397 1.42389 -0.385508 -0.0211417 1.14704e-05 -1.46444e-05 1.00188e-05 
135 1 1.74077 8.86084 23.5393 3.541 -2.9908 1.23528 -5.86407e-05 1.21593e-05 -5.81102e-05 
136 1 10.5939 35.6951 48.7792 -1.42202 3.31977 1.06759 1.78516e-05 2.32717e-06 1.11221e-06 
137 2 5.86945 50.7056 16.8038 -1.62211 -1.43153 -0.458354 -1.52068e-05 1.61013e-05 3.17041e-05 
138 1 46.5472 15.6507 10.4891 1.9749 0.732051 -1.22613 -1.64697e-05 1.37538e-05 -1.55552e-05 
139 2 29.8515 4.70538 46.9009 -2.00845 -0.017397 0.50191 -1.23639e-05 -2.86477e-05 3.25146e-06 
140 2 47.9054 45.8068 45.0919 0.656319 -0.19133 0.483394 -4.98617e-06 -5.39745e-06 1.17147e-05 
141 1 40.8057 39.3465 15.9003 -1.13187 0.275911 2.65667 -1.70793e-05 7.75593e-06 8.78356e-06 
142 2 51.3292 51.1596 38.7254 -0.603981 -0.612193 0.799408 -1.08996e-05 -5.21073e-06 1.19596e-05 
143 1 41.2982 45.8351 15.0647 -1.81628 -0.522182 1.13572 -1.74846e-05 2.87499e-06 4.92864e-06 
144 2 -0.837739 5.52668 1.26333 -0.156057 -0.243909 -1.58615 1.44574e-05 3.57913e-06 2.55883e-05 
145 1 38.7949 45.3769 43.4275 1.96674 1.03444 1.05693 -5.86667e-06 -1.67751e-05 2.33507e-05 
146 1 27.3034 9.17438 29.2447 5.69538 0.817359 2.68357 -6.29482e-05 1.37627e-05 1.06999e-05 
147 2 43.887 13.4432 42.9167 0.710155 -0.788113 0.510758 -2.1558e-07 -5.8514e-06 -5.80338e-06 
148 1 9.75063 37.6324 49.9215 -3.42438 3.64198 -0.172038 2.36367e-05 1.14455e-06 1.29626e-05 
149 2 45.0472 35.2184 44.8423 -0.341038 -2.58921 -0.482726 1.08376e-05 3.30535e-06 6.71161e-06 
150 1 31.1761 48.6813 6.91687 1.29433 -0.96079 0.91258 -4.62295e-06 4.03231e-06 3.5232e-05 
151 1 5.76776 31.5074 26.9681 2.2675 -1.47354 0.695974 -7.32858e-06 1.59401e-05 -8.66711e-06 
152 1 30.9754 52.6157 18.0042 -1.94993 3.03171 -1.13645 -2.64238e-05 -2.16651e-05 3.87713e-06 
153 2 49.2904 2.27591 9.85612 2.02472 2.62942 -1.1739 7.75867e-06 9.977e-06 1.5852e-05 
154 2 39.1785 7.53144 40.0245 -1.56243 -1.33803 0.735487 -4.40149e-06 -1.11017e-05 4.11663e-06 
155 1 36.4599 27.9755 40.6401 1.05819 -0.670657 2.59423 1.25418e-05 -1.8636e-05 -1.4722e-05 
156 2 24.9967 3.65809 15.1753 0.769107 -0.376101 0.675484 2.78118e-07 -1.38358e-05 1.43703e-05 
157 1 35.6848 0.603311 28.8666 1.37952 1.33825 -2.31195 -1.37864e-05 2.00812e-05 1.51066e-05 
158 1 30.976 43.1729 4.18176 1.22027 -2.0399 0.692232 5.7117e-07 -3.06871e-05 1.49394e-05 
159 2 11.0764 12.2922 26.0749 0.0279174 -0.541067 0.340683 -7.75936e-06 4.27117e-06 -6.83231e-06 
160 1 29.2004 5.32434 22.8486 0.867941 -0.00206326 -1.21685 -6.1648e-05 2.90726e-05 3.43772e-05 
161 2 34.6002 21.1064 6.054 0.997285 -0.672485 1.41261 3.4297e-05 5.91738e-07 -6.50423e-06 
162 1 6.4449 0.597838 20.2496 -1.35675 3.20033 -0.0606212 -2.87628e-05 2.74258e-05 1.78271e-05 
163 1 20.8996 40.2561 2.83283 3.94968 -1.11872 2.3905 1.32248e-05 -1.51381e-05 1.0293e-05 
164 2 31.2233 45.0867 42.9124 1.16834 -1.24079 -0.911111 7.81806e-06 -1.56152e-05 1.02584e-05 
165 1 -1.66527 25.1028 19.0443 -2.05291 1.49283 1.45886 1.69192e-05 2.40768e-05 2.35841e-05 
166 1 37.695 50.861 34.5965 3.00426 -0.887314 -2.6741 -1.71744e-05 -7.92855e-06 1.92801e-05 
167 1 11.6454 53.3152 32.2937 -1.85297 -0.624478 0.490056 3.67084e-06 -4.7793e-05 5.83757e-05 
168 1 51.3045 25.4104 6.90758 2.30498 0.786967 3.59326 2.49589e-05 7.34992e-06 -2.4812e-05 
169 2 19.2 32.8714 3.01017 1.14503 -0.52972 1.46811 1.74171e-05 -1.9417e-05 -1.46499e-05 
170 1 15.7358 40.1636 29.0348 0.704019 -1.00543 -0.996547 -2.2677e-05 4.43019e-06 1.41233e-05 
171 1 6.39549 41.3103 5.42376 0.767509 1.50029 1.15801 8.20324e-06 3.10903e-06 2.24579e-05 
172 1 23.8698 11.4419 8.89869 2.04984 1.40261 -1.28269 -2.60301e-06 -1.87782e-06 -9.48646e-08 
173 1 33.415 6.92782 2.42373 -1.13447 -3.92298 1.74562 9.09105e-06 -1.08269e-05 -1.00183e-05 
174 1 40.6585 7.71504 2.44553 -2.55891 1.02297 0.888398 -2.29961e-05 -1.4046e-05 -4.52744e-06 
175 2 51.4972 1.31555 42.5782 0.404274 -1.51227 -0.257295 1.2265e-05 -1.19264e-05 1.58071e-05 
176 2 22.1961 2.63737 7.31915 1.4214 -1.23613 0.616188 -1.26525e-05 -4.49433e-06 1.81697e-05 
177 1 19.444 46.3149 7.39395 0.810675 -2.0164 -0.562286 -7.9811e-06 -7.15918e-06 2.61297e-05 
178 2 11.0989 21.5161 50.3635 0.964948 0.809826 1.10849 2.7266e-05 -1.82544e-06 -2.27651e-05 
179 2 16.3345 12.1605 9.55569 0.424812 0.329652 1.77636 8.74992e-07 5.72977e-06 -1.93901e-06 
180 2 31.8084 34.7399 28.4421 -0.933041 0.114443 -0.55114 6.92769e-06 -1.0861e-05 5.25952e-06 
181 2 46.1874 4.3728 1.71675 1.01783 0.071168 -1.38192 -5.79527e-06 -8.34447e-06 6.13545e-06 
182 1 4.44478 -0.827561 3.85141 -2.80488 -3.03574 -1.35024 -1.03841e-05 -3.72318e-06 1.91945e-05 
183 1 11.631 47.3537 10.3712 1.46591 -1.48572 -0.166543 -9.52233e-06 1.39797e-05 2.60489e-05 
184 1 0.399451 36.9241 1.81079 -0.286768 -0.933797 3.02241 1.0749e-05 4.84349e-06 1.56551e-05 
185 1 24.5728 10.5799 36.0065 -3.09762 0.522553 2.5416 5.83177e-05 -1.70758e-05 -1.4864e-05 
186 2 28.3254 17.4105 15.6541 0.856517 0.79471 0.0713403 -4.22524e-06 1.78819e-06 -1.94667e-05 
187 1 26.6409 21.9512 34.6275 2.05448 2.20332 1.78479 -4.40141e-06 -2.6694e-05 -3.65543e-05 
188 2 18.6224 45.2985 26.2178 -0.597429 -1.5926 1.15794 -2.1168e-05 -2.15617e-06 5.23817e-05 
189 1 1.9621 44.6572 45.5613 -1.42435 3.57296 2.37175 1.68129e-06 -1.4828e-06 1.25907e-05 
190 2 12.9594 40.6358 50.727 -0.746795 1.71643 0.346921 1.03509e-05 -2.9732e-06 2.89421e-05 
191 2 26.7258 42.0391 24.1192 -2.59737 1.22945 -0.300573 -2.66506e-05 -3.77686e-05 2.11112e-05 
192 2 50.6887 10.4731 12.851 -0.627396 -0.833124 1.30542 -2.51501e-05 3.20756e-05 9.4777e-06 
193 1 26.7289 50.6131 13.2829 -0.668461 3.04013 3.66724 -3.198e-05 -1.2432e-05 1.30585e-05 
194 1 24.5197 25.4191 26.492 1.60198 -2.18439 -2.73434 3.13708e-06 8.82312e-07 -1.36395e-05 
195 1 35.1442 43.9401 44.9866 -3.43289 2.26426 -0.427356 4.66396e-06 -2.31706e-05 2.85909e-05 
196 1 51.4517 50.5141 24.8297 1.84844 1.44137 0.394552 -3.12891e-05 2.70617e-05 2.93148e-05 
197 1 26.7295 49.986 38.3209 -0.095399 2.01807 2.70929 -3.33284e-05 1.42747e-05 2.38023e-05 
198 2 20.4743 53.8318 27.2336 -1.18739 1.93752 -1.8891 9.95288e-06 -2.44483e-05 2.16898e-05 
199 1 25.0453 17.7228 27.3762 -3.18624 -0.990226 0.222431 4.36272e-05 -2.63635e-05 -6.91923e-05 
200 2 8.65797 21.0237 33.6376 -0.467409 1.11041 0.212362 9.58108e-06 1.38079e-05 -2.05591e-05 
201 1 8.42072 17.401 45.5473 0.663406 0.857101 2.70443 3.87881e-05 1.68525e-05 -3.24003e-05 
202 1 42.9261 22.8404 40.1071 -0.413225 -1.59035 -4.37488 1.33907e-05 -9.2328e-06 -2.36533e-05 
203 2 1.79806 21.1693 49.9063 -1.85905 0.903223 0.647937 5.3568e-05 2.34451e-05 1.49715e-06 
204 2 33.9082 4.26769 21.8905 0.448832 0.627329 -0.656773 -2.17924e-05 -6.97319e-06 -3.48748e-06 
205 1 23.1145 11.9385 22.0363 -0.144777 -3.31379 -0.92054 -5.64564e-05 3.77518e-06 1.53525e-05 
206 1 33.7076 47.5327 40.276 -2.27829 -0.996571 -0.780712 -4.41164e-06 -2.48308e-05 1.23972e-06 
207 2 12.5915 49.5071 9.06939 0.106169 2.24656 1.28054 -1.88199e-05 1.04403e-05 2.85497e-05 
208 1 23.3366 43.1394 -0.527901 -2.4137 5.04447 -4.76596 1.53486e-05 -1.21496e-05 1.00397e-05 
209 2 28.1877 17.7452 8.3765 0.400559 3.39029 2.39746 1.70756e-05 1.25396e-05 -3.8694e-05 
210 1 26.8526 11.1156 18.3639 0.183123 -0.166937 -2.1216 -2.34775e-06 1.02237e-05 1.61392e-06 
211 2 24.2137 45.2448 30.6469 -1.92741 -0.558581 -1.62859 6.32274e-06 -1.83804e-05 -9.14605e-06 
212 1 27.4052 45.9402 18.0705 -2.38111 -0.617697 0.605525 -1.61296e-06 2.13388e-05 4.348e-05 
213 2 20.8664 13.7229 18.8064 -2.32725 -0.762303 0.930805 -1.07709e-05 2.22601e-06 -7.29487e-06 
214 2 14.9473 44.653 15.6135 -1.69269 1.45008 -1.08168 -1.82838e-05 -7.42776e-06 4.36244e-05 
215 2 1.45208 10.3233 39.7111 -1.31374 -0.805152 0.292556 -2.04382e-05 3.11924e-05 1.1487e-05 
216 2 40.2317 43.6826 49.5245 0.249849 0.557794 -0.320552 -1.59845e-05 -2.33617e-05 -3.35033e-06 
217 1 47.4276 27.1565 25.9362 -1.91118 -1.1613 0.368102 -2.43408e-05 2.47816e-05 -2.56147e-05 
218 1 -1.12018 33.0682 0.743029 1.32365 1.709 -2.31184 2.46084e-06 -3.21793e-06 1.76759e-05 
219 1 27.7971 31.5357 5.60299 2.06436 -1.70433 3.45673 8.58396e-06 -9.37105e-06 -1.50082e-05 
220 1 47.723 6.27837 28.3626 -2.20553 -1.49638 0.17868 3.1853e-06 3.48056e-05 -3.594e-06 
221 1 27.1434 19.3552 -0.707691 -1.9745 -0.569198 -2.10364 2.69904e-05 -1.24965e-05 -2.39611e-05 
222 1 14.2599 7.13182 29.6797 1.01252 -1.82548 1.70222 3.15237e-06 2.70128e-06 -6.75442e-06 
223 1 30.7309 27.1866 30.7617 0.949963 -0.115857 2.80519 8.29455e-06 1.66159e-05 -1.86868e-05 
224 2 29.0212 11.3292 25.33 0.419706 -0.806129 0.533722 -3.09233e-05 -1.96666e-05 6.45688e-06 
225 2 21.28 29.3117 9.051 0.849136 -0.340823 0.22435 2.00725e-05 -2.14853e-06 -1.56493e-05 
226 1 39.1324 3.29084 3.41179 1.73371 4.38618 -0.975282 -1.71214e-05 -1.05856e-05 3.51248e-06 
227 1 43.1024 11.1143 25.8594 -2.38205 1.04785 2.38937 -4.80537e-06 2.43773e-06 -1.59336e-05 
228 1 26.8229 32.4945 21.0174 2.51685 1.93621 -0.00181242 6.92269e-06 -1.82118e-05 -7.56418e-06 
229 2 10.3973 1.44271 18.8897 0.517877 -0.0587305 -0.728544 -7.50436e-06 1.31486e-05 2.61848e-05 
230 2 -0.130214 17.8608 24.3572 0.48712 -0.700709 0.0170659 7.60615e-06 4.62349e-06 -1.0528e-05 
231 1 51.2304 21.6088 4.72862 -0.422444 -0.190873 -0.535365 1.92183e-05 1.37538e-05 -2.51157e-05 
232 1 2.70094 -0.543444 1.91982 4.79035 -3.00964 -4.35118 -6.5226e-06 -6.05575e-06 1.74094e-05 
233 1 50.4722 3.35308 31.3545 -0.886594 0.633556 0.305661 -7.04429e-06 1.47831e-05 -2.23434e-07 
234 1 23.4532 5.19179 31.8882 -0.689527 -2.37463 -1.39102 -1.48778e-05 -2.48728e-05 5.00928e-05 
235 1 16.8386 2.75522 30.1867 1.80475 -0.979473 2.23358 -4.78223e-05 8.46284e-05 0.000107946 
236 2 31.1205 49.2658 23.7273 0.16274 0.999575 -0.0944956 -3.1579e-05 1.39402e-05 1.09774e-05 
237 2 37.2646 17.1226 6.43758 0.955028 -1.40102 1.39556 1.3758e-05 -3.63182e-05 -4.60394e-06 
238 1 16.1596 30.9058 43.4826 0.259659 -0.856778 0.413658 1.65356e-05 4.48247e-06 -9.9575e-06 
239 2 7.00998 41.6358 40.3525 1.56452 -1.47384 0.289107 1.19537e-05 1.72557e-05 1.88117e-05 
240 2 27.028 34.9649 40.8115 1.89534 0.751896 0.255237 8.60644e-06 -2.12562e-05 -6.19861e-06 
241 1 24.8621 23.5342 44.1031 1.83661 -1.80839 0.211904 1.84507e-05 -2.10608e-05 -3.06502e-05 
242 2 7.28434 47.4927 25.6648 1.46871 0.239186 -1.35177 -2.48482e-05 1.33921e-06 -1.87405e-05 
243 1 13.1274 25.2793 3.41129 -3.0765 1.272 0.13745 9.27122e-06 -8.8439e-06 -2.30077e-05 
244 1 2.77578 49.4873 2.35283 -1.62134 2.54747 -0.419969 1.20785e-06 -1.55616e-06 2.72032e-05 
245 1 37.5205 16.7298 35.7165 -1.54294 1.90116 2.1347 2.42392e-05 -1.18734e-05 -1.86199e-05 
246 1 7.71229 34.8391 20.6087 2.49227 -0.0570955 -1.33857 8.56909e-06 2.03615e-05 2.16378e-05 
247 2 30.8631 30.034 50.3729 0.989856 -0.220662 1.32227 2.77795e-05 -1.3753e-05 -1.80786e-05 
248 2 1.25536 6.05709 42.6815 2.28785 0.833007 2.52697 -1.67468e-05 2.04148e-05 3.20509e-05 
249 2 27.5475 8.63075 12.5523 1.66529 -0.717209 -1.04136 -5.40187e-06 7.47061e-06 1.81218e-06 
250 1 16.1995 13.8797 48.9236 0.440804 -3.50757 -2.13191 3.97364e-05 -5.451e-06 -1.5523e-06 
251 2 39.2658 35.7183 3.48625 0.137245 2.32767 -0.980517 1.29878e-05 -2.2598e-05 -5.26986e-07 
252 1 23.4296 46.0133 39.2197 -3.00933 -1.36009 -1.46417 -4.37092e-05 -1.86013e-05 2.70213e-05 
253 1 4.49172 6.24149 2.8497 -0.476881 1.90645 0.852727 -1.05409e-05 1.97661e-05 3.56794e-06 
254 1 19.8406 18.3119 27.5007 -1.90866 0.234602 -0.73597 -2.20547e-05 2.4823e-05 -9.4682e-05 
255 2 22.365 24.054 29.8367 -0.799339 -0.163165 0.150712 -5.06672e-05 -5.23384e-06 -3.50165e-05 
256 1 45.9855 19.2804 46.6889 1.57518 -1.34102 -1.70662 1.17684e-05 -5.78416e-06 -6.32921e-07 
257 1 7.66515 39.1147 45.3081 -2.39557 -0.762238 2.0288 1.93418e-05 -2.49466e-06 1.01294e-05 
258 2 37.2893 12.2708 48.1255 -0.688802 -1.35993 1.98839 2.12761e-05 -2.96163e-05 -2.36929e-05 
259 1 4.86595 38.5166 42.3663 -0.38487 1.18769 -1.262 1.24715e-05 1.36886e-06 8.00328e-06 
260 1 39.5496 9.51578 27.5309 0.105177 2.81339 2.32402 -4.60752e-06 7.48266e-06 -1.98927e-05 
261 1 14.5939 -0.241903 20.1649 2.66122 -0.494814 -2.04652 2.91457e-05 4.26519e-05 4.87013e-05 
262 2 21.2543 18.0507 25.3871 -0.398111 -0.210554 0.802859 1.5625e-05 8.45757e-06 -7.02269e-05 
263 1 39.6905 51.1316 14.6947 -3.76871 1.17038 -1.16825 -2.1403e-05 5.96551e-06 1.82225e-05 
264 1 7.69768 9.43853 10.5287 1.08836 -1.94721 -1.68807 7.05527e-06 -1.98049e-06 3.12394e-07 
265 1 27.6124 34.5939 50.397 5.26996 -1.48322 0.675277 2.48459e-05 -1.7599e-05 -8.33558e-06 
266 1 39.2031 5.03091 16.1685 2.12875 -1.24492 -0.728608 -4.33131e-05 1.39758e-05 5.4917e-06 
267 2 1.52731 25.7668 11.751 -1.84773 0.0685412 -0.719964 -6.04323e-06 9.69409e-07 -1.94758e-05 
268 1 14.655 13.8324 37.6595 1.32289 -0.33249 -0.427523 -1.58229e-05 1.25941e-05 -2.34882e-05 
269 1 49.2116 51.7104 7.56874 -0.478485 -2.92099 1.48468 -1.07875e-05 5.0618e-06 1.50628e-05 
270 1 5.57393 39.3908 26.4379 0.154329 1.51556 -4.20246 5.02799e-06 1.58314e-05 2.73082e-05 
271 2 38.0346 23.1497 34.9758 0.541796 0.674379 0.140552 4.31471e-06 3.53438e-06 -2.64912e-05 
272 2 14.0099 44.6448 20.4022 0.874658 1.96896 0.485191 -4.02597e-05 3.38457e-06 2.29642e-05 
273 1 18.8499 43.2954 7.34209 0.67732 0.264485 1.65817 2.67288e-06 -1.37096e-05 1.73415e-05 
274 2 27.5733 37.8345 10.6142 -0.507275 -1.08771 1.15257 3.08285e-05 -1.28911e-05 2.13165e-05 
275 2 7.76368 6.6129 7.39524 -0.899466 -1.23135 -1.05532 5.74082e-07 -7.04435e-07 1.11035e-05 
276 1 12.5265 42.7849 22.4879 0.436475 -0.930799 0.859373 -1.24214e-05 2.13653e-05 2.38309e-05 
277 2 49.3359 37.6042 16.9206 -1.64242 2.37032 1.21689 -1.02106e-05 1.55971e-05 6.0047e-06 
278 1 38.5707 45.1488 32.1017 3.0293 3.53073 -0.843885 -1.79993e-05 -7.88285e-06 9.05222e-06 
279 1 25.2737 26.1512 36.7908 0.160935 1.86214 1.56293 1.25921e-05 -3.12441e-05 -2.79941e-05 
280 1 9.24207 5.00724 20.9641 -0.138968 0.288629 1.97408 -4.06761e-05 2.33153e-05 1.68411e-05 
281 2 37.9921 25.5441 33.3309 0.508983 -2.15092 -1.11031 -2.81876e-06 1.10256e-05 -1.99248e-05 
282 2 2.64092 8.12394 35.9204 0.666317 0.847851 -1.06066 -2.40692e-05 -1.4374e-05 3.34089e-05 
283 1 -0.954977 21.6478 50.764 -3.07045 0.32105 -0.721188 1.90079e-05 2.07515e-05 -1.85498e-05 
284 1 28.6601 33.8235 6.45953 -0.422007 0.499366 -0.539622 1.2374e-05 3.06145e-06 -1.62498e-05 
285 1 18.9953 33.683 39.5076 2.57546 -1.45429 -1.80078 -8.01774e-07 -4.41354e-06 -1.25675e-06 
286 1 27.8208 26.7916 19.7579 -0.00233668 2.65899 0.491233 3.81596e-05 -9.75657e-06 -2.41921e-05 
287 1 19.6413 5.78439 40.4352 -0.73766 0.466831 -0.747982 2.17571e-05 -5.7087e-05 2.575e-05 
288 1 16.3234 53.1992 7.84955 0.615344 -2.36778 0.451623 -6.25625e-06 1.12801e-05 2.57858e-05 
289 1 16.0144 12.3574 26.7737 0.0924513 -2.25705 2.70795 -3.56384e-05 -7.20899e-06 -1.29735e-05 
290 2 8.15493 -0.817092 6.61079 0.307764 0.378628 1.66796 -8.59435e-06 1.29894e-05 1.3966e-05 
291 2 7.61836 4.03852 23.2639 0.992223 -0.237885 -0.810129 -3.24225e-05 3.95595e-05 1.30616e-05 
292 2 30.714 25.9075 41.6492 2.16238 -0.219582 0.162388 2.46658e-05 -2.61717e-05 -2.80193e-05 
293 1 33.8292 29.2784 47.2898 0.364729 1.43231 5.14115 2.91629e-05 -2.07951e-05 -2.91326e-05 
294 2 29.4499 35.3932 27.2552 0.833173 -0.0398739 2.01161 1.5896e-05 -1.59355e-05 1.47165e-05 
295 1 46.3557 44.6951 6.83215 2.09685 -1.08585 0.304563 -3.13309e-06 6.72603e-06 2.35168e-05 
296 1 31.1144 52.0014 15.729 0.11305 0.259368 -2.8109 -3.90582e-05 -1.79705e-05 3.29411e-05 
297 1 3.65132 38.8973 3.6638 -1.10993 -0.100687 2.8496 1.61645e-05 -7.2508e-06 2.25121e-05 
298 1 13.6975 10.091 35.6505 0.562448 -1.58067 2.41199 2.8182e-07 -2.77162e-05 -5.39434e-07 
299 1 23.2619 33.9973 15.9254 0.82906 -3.1969 0.145868 -3.10576e-07 -1.28469e-05 -2.53441e-05 
300 1 39.087 47.9301 37.4308 -2.59768 -3.02079 1.1929 -1.48366e-05 -6.44751e-06 1.27862e-05 
301 1 3.14313 23.2789 10.8113 3.07803 -1.08124 -1.92692 1.42706e-05 2.45773e-06 -1.48051e-05 
302 1 50.8498 21.8049 37.3269 -1.18754 -1.84024 3.81596 1.33131e-05 4.91269e-05 9.80744e-06 
303 1 32.8352 30.6512 6.90797 -1.0013 -0.272162 -0.153678 3.29904e-06 -7.07599e-06 -9.97553e-06 
304 1 40.9713 50.6278 40.6736 -0.767533 -3.87806 1.53218 -7.77717e-06 -2.18361e-06 1.32523e-05 
305 1 49.768 43.1247 41.9983 -0.729377 0.329217 -0.807979 1.15166e-05 8.52718e-06 1.48111e-05 
306 1 22.3437 2.87211 2.85472 1.72596 1.73241 1.41145 -1.20667e-05 -3.17527e-06 3.99478e-06 
307 1 50.834 45.3049 4.99693 3.94811 -2.84429 -0.172097 1.22039e-06 3.54641e-06 3.14279e-05 
308 2 -1.03918 33.5058 36.6363 -0.488103 0.32529 0.409023 2.7879e-05 1.99289e-05 -1.86874e-05 
309 1 0.430031 31.4187 30.3516 2.66603 -0.313039 -0.0400736 9.92107e-06 1.99347e-05 -2.39021e-05 
310 1 37.6855 37.5704 50.3799 0.853384 -1.85516 0.879943 1.22324e-05 -1.0849e-05 4.89127e-06 
311 1 -1.04524 17.2725 9.06647 1.84369 -0.00869465 0.857107 1.17877e-05 1.69174e-07 -5.84186e-05 
312 2 43.1323 48.595 31.4871 -0.740893 0.70067 -0.284029 -3.75115e-06 8.66243e-06 2.03161e-05 
313 1 46.422 41.44 44.9001 -2.83913 -1.59203 -0.0162389 -2.70116e-06 -1.59523e-06 1.53227e-06 
314 2 10.8508 28.0924 8.53647 0.0342013 0.477482 -0.920898 2.70219e-05 1.07545e-05 -1.62076e-05 
315 1 40.0331 18.442 13.3432 0.25114 -0.397836 -0.558182 3.3262e-05 9.09642e-06 2.00926e-05 
316 2 29.2138 3.53296 24.762 1.6835 0.689838 0.644294 -4.61987e-05 -2.16522e-05 -1.55303e-05 