ITEM: TIMESTEP
21180
ITEM: NUMBER OF ATOMS
11664
ITEM: BOX BOUNDS pp pp pp
0.585856 56.3812
0.585856 56.3812
0.585856 56.3812
ITEM: ATOMS id type x y z vx vy vz fx fy fz 
1 2 38.6763 25.3149 53.6816 0.19468 1.01949 2.20155 2.4634e-05 -1.73525e-05 -8.79478e-06 
2 1 54.5685 23.8808 13.7974 -1.58767 3.07964 -2.29353 8.44309e-06 4.32539e-05 -5.25651e-05 
3 1 40.626 37.7542 36.2345 2.99523 -0.415704 -0.111643 1.31707e-05 -9.77009e-06 -2.20418e-05 
4 2 52.0948 39.3203 20.2915 -2.08447 0.93448 1.77174 3.76165e-06 -8.37884e-06 -1.8061e-05 
5 2 26.9736 43.282 53.3519 -0.0198731 0.745162 -1.70466 2.09463e-05 1.93969e-05 -3.27546e-07 
6 2 26.3296 3.99042 50.4923 0.610492 -0.133799 0.428536 -4.27444e-05 2.5645e-05 2.43203e-05 
7 1 53.9208 54.833 37.7546 2.989 -1.14346 2.32571 -2.02622e-05 2.38974e-05 -1.49292e-05 
8 2 28.8607 41.4421 9.4565 -0.567552 0.473569 -0.283128 1.28405e-05 3.50539e-05 5.42653e-07 
9 1 52.521 55.5735 7.42844 -2.1271 0.0297041 3.1249 9.16702e-06 2.29154e-06 2.81491e-05 
10 1 44.819 17.7759 11.68 0.417422 1.82364 -2.66197 1.60959e-05 -1.38724e-05 -5.60928e-06 
11 2 52.9767 26.71 32.616 0.266285 -1.22427 -1.0075 2.10607e-05 2.206e-05 -3.27782e-06 
12 1 16.9108 52.4228 25.1249 -1.61078 0.467783 -0.0591269 -1.98629e-06 2.9889e-07 9.39087e-06 
13 1 6.64139 37.7072 14.2317 0.727618 -2.13201 0.104781 1.25675e-06 1.74784e-05 -1.3421e-05 
14 2 21.6148 24.05 22.4832 0.35908 -0.699257 -1.12609 1.42448e-05 -3.89576e-05 -1.46836e-05 
15 1 27.0364 46.628 13.8239 -0.0617995 -1.73674 -2.5173 9.14421e-06 -7.37251e-06 1.33754e-05 
16 2 50.4914 39.6625 22.3684 -1.0779 0.880864 0.666693 2.21931e-05 -2.28497e-06 -6.09477e-05 
17 1 34.2961 55.6275 43.9523 4.48317 1.59227 0.925669 1.13424e-05 -2.64028e-05 2.0698e-05 
18 1 54.6902 56.3489 29.9888 -1.48699 -1.83316 -3.42599 8.17181e-06 -1.27681e-05 1.97025e-06 
19 1 44.5035 46.6106 46.3756 0.316178 0.42136 -0.141269 -2.83031e-05 -5.72989e-07 -1.63491e-05 
20 1 35.1122 54.8665 22.1958 0.00535384 -2.96175 -0.713418 -1.73671e-05 -1.18031e-05 4.84264e-06 
21 2 43.271 46.9448 41.1442 -0.649895 -0.942142 -0.659154 -2.99189e-05 -4.08957e-05 -5.5647e-06 
22 2 55.3178 52.6646 49.1498 0.345484 0.812518 0.19736 4.81552e-06 2.0622e-05 3.18223e-05 
23 2 19.7648 53.4488 50.7648 0.615854 0.583751 1.14164 -2.45016e-05 -5.1371e-05 3.15037e-05 
24 1 9.78815 24.7917 1.68373 1.41064 1.74524 -0.49459 1.10425e-05 2.02671e-06 -7.75913e-06 
25 1 25.9377 45.9621 1.37239 0.344602 1.32879 -3.44733 -4.01191e-06 -2.09129e-06 2.41578e-05 
26 1 41.6364 36.1569 10.1971 0.644609 -1.97079 0.36764 1.24761e-06 7.33597e-06 -2.73415e-05 
27 1 19.1505 20.5442 18.4388 1.448 -0.441072 -1.11643 -8.84443e-06 2.1054e-05 -5.22994e-06 
28 2 47.1141 50.8374 33.5648 -0.972526 0.363619 0.000934642 -7.21337e-06 -3.51286e-05 -8.5543e-07 
29 2 28.4963 10.5022 47.012 -2.03269 -0.266854 0.377478 -3.70586e-06 7.32462e-06 1.85974e-05 
30 1 4.03998 24.1794 31.8813 0.814077 0.459013 1.28184 -1.71247e-05 8.31817e-06 -3.13291e-05 
31 2 37.502 19.3531 45.4607 1.65097 -1.03748 0.263233 -1.49539e-05 4.13991e-06 1.34558e-05 
32 2 37.3551 29.804 2.9868 1.14244 -1.30606 -0.244374 -5.86282e-06 -5.83857e-07 -3.50342e-05 
33 1 35.6629 13.6359 10.8515 -3.37763 -0.453858 -0.611555 4.22218e-06 -1.15865e-05 1.88858e-05 
34 2 30.2729 21.7227 17.7384 0.101969 -2.61947 0.289903 -3.86321e-06 -3.16689e-07 1.85205e-05 
35 2 11.1621 8.22909 50.0972 -0.105738 -0.838748 0.457612 1.96386e-05 9.23953e-06 1.43574e-05 
36 2 21.487 44.6742 42.6674 1.60945 0.503299 -2.4056 -2.32169e-05 2.95452e-05 -7.02577e-06 
37 2 2.50728 31.096 51.9957 2.66643 2.06278 -0.236994 1.05917e-05 5.56861e-06 -7.54104e-06 
38 2 24.7526 25.1812 54.5705 0.234234 -0.968475 -1.17284 2.32671e-05 1.84099e-05 2.98296e-05 
39 1 40.9504 26.3497 26.5531 -1.47913 -1.26172 -2.40317 2.38614e-05 9.89414e-07 3.78597e-06 
40 2 46.8095 24.1184 11.7764 -1.03725 -0.775156 0.447107 5.16092e-05 1.58863e-05 -2.30521e-05 
41 2 44.6566 11.4541 29.327 1.37448 -0.147798 1.17868 -3.15208e-05 -1.20794e-05 6.00613e-06 
42 2 1.71051 19.1671 42.1632 0.160679 -3.92864 1.61458 -8.01329e-06 1.42279e-05 6.9074e-06 
43 2 42.5316 37.7869 3.91307 -0.104974 1.13351 1.58709 2.76978e-05 -3.40214e-05 -2.53254e-05 
44 1 23.4915 1.6962 31.5297 -3.31788 0.360107 -2.21878 -1.46154e-05 -1.63597e-05 -1.14915e-05 
45 1 44.3801 33.05 15.086 1.49054 -0.00613267 -3.29302 2.42317e-05 1.39764e-05 -3.99347e-05 
46 2 15.804 9.87369 49.3587 -0.247527 -1.5315 2.90345 1.99521e-05 1.51293e-05 2.3558e-06 
47 1 8.83637 16.4873 32.6753 -2.21622 -1.70317 3.73441 4.26156e-06 -2.62289e-05 7.76567e-06 
48 1 43.7695 47.515 36.4118 0.583213 0.297194 0.0199918 -1.90995e-05 -2.19168e-05 -3.23494e-05 
49 1 29.4124 31.1326 37.5457 -0.819 1.14384 0.173575 -7.82123e-06 5.16891e-06 -6.76317e-06 
50 2 52.0516 13.2653 55.4237 -0.552514 -1.53164 -0.138303 -9.47761e-06 4.60752e-06 -2.47705e-05 
51 2 28.748 6.74668 2.2249 2.39214 -0.713461 3.62503 -3.05389e-05 3.95973e-05 4.36949e-05 
52 2 27.3774 49.367 24.3707 -0.967442 -0.25977 -2.32857 7.56401e-06 -4.7819e-06 1.03673e-05 
53 1 26.0531 46.2675 38.4685 -0.728784 0.687179 0.388098 -3.39014e-06 1.21161e-06 7.02147e-06 
54 2 35.6989 6.03403 21.3778 -0.661684 0.40279 1.15314 -3.3317e-05 8.92707e-06 6.59031e-06 
55 2 5.32486 54.3846 14.5952 0.460043 0.337626 -1.55393 -1.82117e-06 -3.17835e-06 -6.95914e-06 
56 2 4.31819 39.66 23.2716 -0.684577 -1.05269 -0.374514 2.74157e-05 -9.28331e-06 -3.56877e-05 
57 1 23.3315 27.4907 28.6241 -1.50587 -0.139854 -0.816836 8.95572e-06 -2.21058e-05 1.15009e-05 
58 2 6.35536 23.3095 32.7253 -0.894879 0.639925 0.408202 -1.21215e-05 3.63315e-05 1.44101e-05 
59 2 22.7549 48.1504 31.8462 1.23719 0.116637 -0.733745 -2.50026e-05 -7.24278e-06 -1.54695e-05 
60 1 13.2959 43.5603 30.5062 -0.866426 3.74133 -0.0999056 -2.71665e-05 -1.97958e-05 -1.26414e-05 
61 2 37.8949 24.7151 38.7553 0.314662 0.394393 -1.70195 4.03066e-07 -1.04475e-05 -1.88856e-06 
62 2 15.8978 26.9061 43.8094 0.0530473 2.63464 -0.296566 -2.96287e-06 1.11266e-06 -1.31048e-05 
63 1 48.9592 10.9347 14.798 1.42081 1.14207 -2.05037 7.86617e-05 -3.07912e-05 -3.6703e-06 
64 1 11.2725 47.2736 1.83692 -0.140025 -3.12207 0.396576 2.4649e-05 1.75412e-05 5.7067e-05 
65 2 31.9284 34.7475 23.4296 0.616784 -0.0734824 -0.750898 -1.44968e-05 -2.58833e-05 -4.79002e-05 
66 1 46.6185 14.8645 20.4269 1.39792 -1.48621 3.04889 4.49116e-06 -3.68799e-07 -7.81159e-06 
67 1 38.1583 17.4707 32.5253 -0.518925 0.0298628 2.7712 -1.92376e-05 8.33162e-06 6.81004e-06 
68 1 40.3872 55.716 54.3117 -2.25454 3.663 1.54431 4.67204e-06 -2.30881e-05 6.04374e-05 
69 2 41.7527 8.21832 8.11401 -0.955171 -0.575271 -2.00071 1.85813e-05 -5.13638e-06 4.18525e-05 
70 1 3.05771 33.0495 47.2788 -0.326589 -1.80264 -0.992896 -7.09499e-06 -6.29524e-06 1.82371e-05 
71 2 4.25461 41.2051 19.1055 0.956946 -1.09456 0.203393 9.97568e-06 -1.61582e-05 -4.47317e-05 
72 1 15.9042 32.9057 48.3357 1.61208 0.568612 -0.320568 -1.55699e-05 1.08167e-05 -4.89115e-06 
73 1 4.90254 55.8414 0.821326 -3.53876 2.04107 -5.07768 8.54862e-06 3.09893e-05 -1.04641e-05 
74 1 54.8918 24.8001 9.07191 -1.47185 -4.79966 2.72689 2.73887e-05 1.82106e-05 -4.64835e-05 
75 1 43.3347 15.1473 6.09073 4.21581 0.428406 1.31197 3.96404e-05 2.23232e-05 2.20718e-05 
76 2 9.59496 27.4352 35.0758 -0.726941 -0.4409 -1.16584 -2.02139e-05 2.51327e-06 -1.13197e-05 
77 2 47.7057 39.4727 36.59 -0.497793 0.685295 0.193367 1.71577e-05 -9.88604e-06 -3.64067e-05 
78 1 0.714689 9.39663 12.3293 -0.0818456 -1.38354 -1.04366 -4.7601e-06 -4.67882e-05 -2.10832e-06 
79 2 16.2934 3.38376 3.74621 -2.05313 -2.15119 -2.22167 4.66383e-06 5.43286e-05 1.36272e-05 
80 2 43.4445 21.874 31.4147 0.820034 1.12244 -0.797441 -1.88283e-05 -2.94133e-05 7.67076e-06 
81 1 46.0286 5.65701 18.9551 0.907447 3.45081 -2.35796 -1.94093e-05 -2.0136e-05 1.04826e-05 
82 1 4.29776 13.6318 30.615 -0.0138342 -1.29577 -1.27836 8.60984e-08 -2.3602e-05 1.74223e-06 
83 1 32.9281 51.3785 6.5821 3.73781 -0.901418 2.18647 -8.21304e-06 1.15589e-05 9.32362e-06 
84 2 27.4581 31.9085 24.6925 1.06492 -0.447926 -0.284048 -5.22367e-06 -1.19116e-05 -3.01691e-08 
85 2 36.526 7.84119 53.8295 -0.633122 -2.95637 0.0936363 -9.04421e-06 5.90531e-05 2.45498e-05 
86 1 51.8266 38.4558 46.4675 -0.424393 -3.18891 -1.7776 6.17278e-06 -1.24199e-05 -1.99021e-05 
87 2 3.41756 19.6045 31.9964 0.241086 -0.00845019 -0.22262 -1.63519e-05 -1.99236e-05 9.85558e-06 
88 1 39.3492 46.1953 14.01 -0.0642986 -1.2359 0.374582 8.93892e-06 2.90183e-06 2.1026e-05 
89 2 47.3261 2.32972 27.6111 0.989418 1.02781 0.099057 -8.38633e-06 -1.73841e-05 -1.214e-05 
90 2 16.4501 24.1571 18.9134 1.95566 0.893544 2.59336 6.80026e-06 -4.17276e-06 3.16837e-05 
91 2 8.28029 46.7683 15.9177 0.00582239 -1.25332 0.865829 4.00999e-06 9.8783e-07 -2.32966e-05 
92 2 44.7299 38.1819 44.9675 -1.09775 1.5351 1.31484 -1.26654e-05 -3.94675e-06 -3.83713e-06 
93 1 5.86172 24.8943 19.0958 4.14729 2.8871 -2.27435 6.68835e-06 4.31317e-05 -8.01987e-06 
94 1 7.24996 16.0247 38.6961 -1.37917 -0.0983904 -0.453341 -9.2599e-06 4.18065e-06 -1.56741e-05 
95 1 17.9496 0.655303 27.0295 -1.54853 -0.500956 2.72607 6.66155e-06 8.57589e-06 6.94092e-06 
96 2 33.3571 54.5809 20.0769 -0.931706 -0.909486 -0.183007 6.73827e-06 -6.79061e-06 1.72308e-05 
97 1 33.1112 9.22726 22.6769 2.0615 -0.09178 1.13627 -1.03809e-05 -8.70031e-06 1.35977e-05 
98 2 50.2437 52.6758 27.2549 -0.0705048 0.30788 -1.16924 -9.71297e-07 1.29509e-05 -9.97801e-06 
99 2 9.38446 52.0798 16.2556 0.313701 -0.0462304 1.75826 1.19452e-05 -2.64094e-06 -3.07146e-05 
100 2 39.927 40.0899 16.6618 -0.848252 -0.541395 -1.56177 3.00246e-05 2.19933e-05 2.18983e-05 
101 2 13.4151 25.5226 33.5599 -0.601268 0.205168 1.00161 -1.87399e-05 -8.51316e-07 1.72307e-05 
102 2 47.9678 7.18767 22.8038 1.48682 0.12833 0.0913457 6.49074e-07 1.0736e-05 -2.48668e-05 
103 1 16.6606 24.9118 45.5068 -1.99459 -0.212285 2.32417 -2.26381e-05 -7.00139e-06 -1.11611e-05 
104 1 39.8756 49.2349 16.79 -2.02955 -0.278951 -0.694514 1.61596e-05 -6.99082e-06 -5.46495e-07 
105 2 18.0044 31.841 30.7089 1.19817 1.13785 0.361083 4.13331e-06 -1.02001e-05 1.98063e-05 
106 2 16.5116 45.8013 33.5553 0.740435 -1.14039 0.85046 -1.36627e-05 -2.07191e-05 1.06879e-05 
107 1 39.7732 42.431 55.7176 0.0142922 -2.00435 -0.718562 -6.885e-07 1.07047e-05 -3.08579e-05 
108 2 46.9338 53.5187 55.5719 -0.542579 -0.228612 -1.22901 -5.51129e-05 4.38563e-05 3.95314e-05 
109 2 16.0685 7.58173 33.3706 -0.137005 1.33265 1.77794 -3.20053e-05 -2.45364e-05 3.21531e-05 
110 2 19.5928 19.0505 44.0095 1.62664 -0.67369 -1.3994 -2.18599e-05 5.50451e-06 -1.83962e-06 
111 1 55.9488 17.9622 23.0652 0.580491 1.4439 0.907075 3.6511e-05 4.63168e-05 3.72096e-05 
112 2 1.37192 43.5459 35.3561 -0.718608 -0.366673 -1.2685 -4.05444e-05 1.04178e-05 -1.40943e-05 
113 2 3.71527 2.41728 12.5938 -3.26224 -0.289151 0.0396039 1.75798e-05 1.36217e-05 2.24248e-05 
114 2 54.8555 53.5796 40.3613 2.73967 -0.472531 -0.107088 -7.59887e-06 4.79303e-06 -6.78855e-05 
115 2 47.6419 42.2693 4.36584 -1.1497 -1.09399 0.809845 3.15181e-06 1.89006e-05 -2.68195e-05 
116 2 20.0542 16.94 32.6722 1.93592 -0.796434 2.70984 -2.25034e-05 4.3612e-06 1.23695e-05 
117 2 14.4132 35.049 54.1026 -0.6433 -0.860294 1.49932 -5.43522e-06 1.50122e-05 -2.57262e-05 
118 2 26.1967 45.3746 43.8911 -2.39474 -1.04354 0.665236 1.18866e-05 1.57023e-05 -3.35021e-06 
119 2 46.1969 39.3404 2.19857 0.232383 0.522889 -0.648896 1.85637e-05 -1.66444e-05 1.26743e-05 
120 2 6.58581 50.2508 11.6415 1.38917 2.69895 1.13076 9.10732e-06 1.55161e-05 -1.77036e-05 
121 1 52.1285 27.1507 40.3674 2.20623 -2.25091 -1.51732 -6.11372e-07 2.75674e-06 -1.72692e-05 
122 2 18.8851 2.41713 13.1058 -0.801963 0.101362 0.39968 2.55958e-05 -1.96004e-06 3.34098e-05 
123 2 38.5864 38.9426 9.78545 -0.488556 0.636256 -0.396324 -1.41255e-05 1.48871e-05 9.18505e-06 
124 2 47.2215 51.0622 48.554 -0.497398 1.27599 -2.42681 1.26188e-06 3.29869e-05 9.74368e-07 
125 1 14.1832 25.7017 54.6834 0.585114 0.563749 0.658106 -5.1559e-06 1.19299e-05 -5.49e-06 
126 1 33.6677 23.6397 53.017 -2.63501 -0.283776 1.33908 2.34165e-09 5.3455e-07 -1.18658e-05 
127 2 47.7373 11.6214 17.1076 0.0290731 -2.26954 -1.45867 5.33721e-06 -1.14056e-05 7.17593e-06 
128 2 1.30639 49.0922 52.0344 -0.0937243 0.637378 -0.782604 -2.76497e-05 4.73191e-05 -2.85919e-05 
129 2 28.0304 14.3492 42.3481 1.51282 -1.805 2.31006 -6.82317e-06 -2.29216e-06 -1.13064e-06 
130 2 13.65 44.2466 21.3193 -1.45541 -0.468286 0.110945 2.25298e-05 9.01006e-06 8.02286e-06 
131 2 49.4101 35.1345 4.68207 1.69788 -0.617324 0.523108 -1.52986e-05 -5.30576e-06 -3.55929e-05 
132 2 21.1223 48.2088 18.7239 -0.180782 1.71118 -1.38483 -9.16652e-06 1.22544e-05 2.14292e-06 
133 1 12.7762 39.7972 26.1983 -0.709944 4.10073 -2.05538 4.54935e-06 4.56518e-06 -1.02154e-05 
134 2 6.17388 48.2185 36.4088 1.94688 -2.11977 -1.78571 -2.5371e-06 -9.9397e-06 -6.64593e-06 
135 2 0.694592 26.2011 20.4141 0.873321 1.35476 -0.746621 1.88562e-05 6.82973e-05 1.36056e-05 
136 2 18.6061 1.94408 17.2684 -1.45095 0.184045 0.148632 4.53882e-06 5.51901e-06 2.21827e-05 
137 1 22.7579 39.9591 37.319 -0.0959849 -2.19774 -3.06756 4.9921e-06 -1.42485e-05 4.41693e-06 
138 2 34.5757 20.9885 25.6191 1.23759 2.25103 -1.3088 -2.79408e-05 -1.161e-05 -1.42996e-06 
139 2 24.4336 9.05678 53.1452 -0.151184 -1.0025 1.72185 2.53205e-06 -1.77669e-06 -7.56723e-06 
140 1 44.7929 26.2545 6.79997 -4.25404 0.893819 -2.7974 1.99884e-06 -6.78349e-06 -1.03424e-05 
141 1 42.7413 24.691 27.204 1.49485 0.259581 1.11973 2.31781e-05 1.60786e-06 -1.69422e-05 
142 2 32.4005 36.9312 49.1464 0.718247 1.68593 -1.69685 -1.20815e-05 -1.3304e-05 -1.61271e-05 
143 1 13.2571 46.6363 44.893 -2.42128 -2.83353 3.89561 -7.89477e-05 -0.000121422 7.07036e-05 
144 2 51.752 16.8737 25.8761 0.485715 1.73198 1.10839 7.00213e-06 7.95663e-06 1.79274e-05 
145 2 19.4062 54.4666 45.675 0.51055 -0.210441 1.61331 2.50665e-06 1.66704e-05 -4.48521e-05 
146 1 17.887 21.0668 16.0995 0.412374 -1.08432 -3.73075 1.10335e-06 5.6128e-06 -1.48688e-05 
147 2 28.3631 39.9572 29.0379 -1.72366 -0.589387 -0.0223608 -2.26918e-05 -7.27198e-06 5.48422e-06 
148 2 6.40281 28.8863 27.0241 -0.0277793 1.82487 -0.123551 1.94239e-05 -9.14339e-06 -1.45069e-05 
149 2 4.61472 52.859 1.37116 -0.308423 -0.744406 -0.287194 -2.50663e-05 2.52421e-05 -1.5603e-05 
150 2 40.5188 49.0295 21.4504 -0.0297406 -0.312648 0.396735 -5.05576e-05 -2.88396e-05 1.56586e-05 
151 2 45.1723 45.5151 52.8493 2.22598 -1.01743 0.75837 -1.16933e-05 1.15054e-05 -2.80054e-06 
152 2 41.9012 11.7479 12.7826 0.231127 -0.573568 -0.116805 -2.00387e-06 -1.11267e-05 3.31999e-05 
153 2 40.6157 24.0471 25.7626 -1.24681 0.857742 0.790341 1.36659e-05 -2.067e-05 -4.7201e-06 
154 2 18.8564 47.1628 28.8541 0.793127 -0.594079 -0.211302 -1.79508e-05 1.13411e-06 1.00143e-05 
155 2 40.727 6.91138 33.7426 0.961659 0.39693 -0.0130328 -1.99955e-05 -2.29472e-05 1.10225e-05 
156 2 23.2865 51.2267 36.8122 0.93999 -0.00302491 0.562532 1.32752e-05 -6.28542e-06 9.33031e-06 
157 1 34.2339 30.2071 37.5935 -0.326107 1.30878 -1.86808 2.50456e-06 -1.55512e-06 -1.69363e-06 
158 2 42.6446 47.9284 45.3497 -0.816366 -0.617207 -0.793838 2.25242e-05 4.3058e-05 -5.14073e-06 
159 2 2.99905 52.0395 6.98632 0.62341 -1.31864 0.58472 8.97228e-06 -1.87575e-05 -2.14098e-05 
160 2 9.06445 2.35032 44.4595 0.0971815 0.329631 -1.9914 3.01352e-06 -5.79498e-08 2.8753e-05 
161 2 16.3796 35.9233 33.1346 2.39031 0.512731 -0.763662 1.91595e-05 6.59424e-06 -5.10954e-06 
162 2 40.7543 42.2545 22.7388 -1.52654 0.236376 -0.872693 -1.06583e-05 1.01001e-05 -2.2073e-05 
163 1 5.50264 22.0019 15.7867 2.24792 0.00567896 -1.7248 -8.18462e-06 2.16593e-05 -6.86205e-06 
164 2 37.2965 5.95604 43.2759 1.72385 0.689228 0.146364 1.28175e-05 1.13542e-05 1.30964e-05 
165 1 19.3832 14.1748 53.3347 -2.05435 0.959418 0.499983 -1.15963e-05 1.76075e-05 8.24808e-06 
166 1 10.7957 9.02294 47.2455 -1.17792 -1.26501 0.668339 -6.35897e-06 1.50991e-05 -1.7095e-05 
167 2 9.71353 14.8862 22.9651 0.301271 -0.599008 0.236857 2.08995e-06 -3.68388e-05 -1.88252e-05 
168 2 11.7426 28.1631 42.7003 -0.742686 0.39574 -0.260411 3.53629e-07 -6.37779e-06 -4.45461e-06 
169 1 24.1352 8.08312 50.8259 0.0055487 -4.04272 -1.68911 1.12654e-05 -4.59402e-06 -4.64469e-06 
170 1 27.6925 10.567 20.9729 2.10405 1.27792 2.71946 -5.97307e-06 -3.08005e-06 3.35064e-05 
171 1 10.2974 14.7622 26.1098 2.20777 0.811838 -1.73329 1.62847e-05 1.88282e-05 -1.32854e-05 
172 2 36.8275 29.111 18.3438 -0.30918 1.61976 -1.77564 1.19573e-05 2.41028e-05 -9.731e-06 
173 1 52.0788 26.9661 23.6211 -1.22652 -2.21745 1.03796 7.59806e-05 9.93559e-05 -5.0253e-06 
174 2 46.7965 9.21719 16.2976 -0.304243 0.439413 0.222114 -2.73154e-05 -2.9777e-05 1.2377e-05 
175 1 55.7624 43.3009 8.54835 -2.46191 3.26912 -2.09968 2.08857e-05 9.12284e-06 -1.94665e-05 
176 2 37.307 34.4808 49.4563 -0.997028 0.509922 -0.915137 -1.04785e-05 4.23081e-06 1.46154e-05 
177 2 29.6688 19.7162 36.0208 -1.08069 1.23746 0.554453 -1.76898e-05 -1.55546e-05 3.01654e-05 
178 2 31.7194 1.2304 42.6678 -0.943943 -0.151469 0.195177 -3.09351e-05 1.39508e-06 2.51764e-05 
179 2 23.3217 23.7977 3.62966 0.828302 0.734031 -1.46539 1.44552e-05 1.65916e-05 -6.83711e-06 
180 2 2.60074 22.1631 30.6746 -0.881567 0.885012 1.6348 1.78953e-05 2.33594e-06 5.2998e-05 
181 2 17.197 20.6532 30.8739 0.479984 1.09527 1.56327 -9.92623e-06 -2.37293e-05 1.25423e-05 
182 1 44.2197 33.6439 21.6084 -1.17845 -2.53902 0.0492741 -2.5874e-05 2.25394e-05 -3.23152e-05 
183 2 52.7207 38.5259 26.2104 0.55274 2.14322 0.346968 2.41931e-05 -2.59466e-05 -3.87732e-05 
184 2 22.8516 31.2914 16.4135 1.27097 -0.871756 -0.833245 2.80253e-05 1.47883e-05 -1.80062e-05 
185 1 0.724993 2.65821 40.5517 0.780351 0.924988 0.216866 3.04712e-05 -2.01521e-05 1.98154e-05 
186 1 15.4053 35.6417 12.2573 2.92549 -1.80914 1.41595 1.6884e-05 5.97788e-06 -5.98102e-06 
187 1 8.95872 54.004 2.46968 1.5426 1.94736 2.63929 2.09232e-06 4.07271e-05 -1.67557e-05 
188 1 46.3111 52.9923 41.7502 -0.319229 1.41692 1.77119 1.79629e-05 -1.20784e-05 2.7924e-05 
189 2 26.2824 36.4847 41.9369 1.21214 0.694164 1.04397 1.03875e-05 -2.66262e-05 6.64583e-06 
190 2 37.0408 44.4472 9.16286 0.318828 1.09789 -0.889625 2.39387e-05 -7.36813e-06 5.95459e-06 
191 2 10.016 49.8556 51.293 -0.206591 -2.7568 0.809107 7.42859e-05 3.1764e-05 -6.79618e-05 
192 1 17.7499 8.10306 48.4554 -2.79588 0.694686 0.130639 3.83308e-05 -9.79438e-06 -1.02463e-05 
193 2 20.9649 51.4749 41.3695 -0.465945 0.792768 0.315466 -8.44237e-06 1.96599e-05 9.39164e-06 
194 2 38.0073 1.20629 45.959 -1.72519 0.577227 0.725612 -1.13599e-05 -2.7991e-05 1.49204e-05 
195 1 25.8819 37.3195 25.9951 -0.523724 -0.0415846 -0.140621 2.37318e-05 -1.95524e-05 3.70471e-05 
196 2 18.7861 21.653 32.8034 0.948577 0.460611 1.28056 3.90248e-06 6.83794e-06 1.15149e-06 
197 2 40.8447 30.2563 44.3746 -1.12682 -0.193167 0.984165 8.21632e-07 -8.01427e-06 -2.17196e-05 
198 1 15.192 15.5594 42.2441 3.52444 -2.40388 2.00087 -4.75809e-06 -1.77322e-07 7.79419e-06 
199 2 46.7143 29.5882 43.465 1.66452 -0.0154466 0.665701 4.31054e-06 -1.39665e-05 -2.42624e-05 
200 2 2.62316 24.1453 37.2464 -0.399173 0.601812 0.733613 -9.18562e-06 1.58999e-05 -2.72095e-05 
201 1 33.2135 44.7819 44.3378 3.03451 0.304989 -1.0043 1.51189e-05 -7.81987e-06 1.65082e-05 
202 1 22.4219 50.557 8.18437 3.17452 -0.056091 -1.69345 1.60517e-05 1.27881e-06 1.42262e-05 
203 1 15.5334 48.597 12.1954 0.345219 0.979223 1.42344 2.06008e-05 2.55469e-05 1.25026e-05 
204 2 6.86478 19.0485 34.7231 -0.357675 -1.28417 0.0516878 9.08903e-06 -2.52479e-05 4.06831e-07 
205 2 15.3069 49.4816 3.61384 -0.013793 0.526683 -0.22404 5.57402e-05 9.58503e-05 -4.85801e-05 
206 2 29.7589 42.7739 25.1537 -0.300745 -1.07647 -0.448957 2.77929e-05 8.68584e-07 -7.01659e-06 
207 2 43.2329 55.8174 34.2615 -0.919797 -0.58799 -0.0592823 -4.5361e-07 -2.80592e-05 -3.05041e-06 
208 1 31.5673 5.65588 42.1562 0.517951 -1.40466 -1.42731 -2.21781e-05 -6.03388e-06 2.00709e-05 
209 1 22.7183 12.894 0.784602 -1.04665 -0.373231 -0.455978 -1.16108e-06 1.19083e-05 1.51949e-05 
210 2 51.884 52.5446 53.1787 -1.02885 0.150774 0.0542211 1.72126e-06 1.61765e-05 8.401e-05 
211 1 49.2332 16.978 25.9411 0.877513 -0.897077 0.409693 6.39362e-06 -3.20835e-05 -1.96391e-05 
212 1 11.6549 47.8335 25.5285 -1.23942 -1.76478 0.682206 -1.56628e-05 -4.65921e-06 6.58211e-07 
213 2 26.5087 0.688201 18.1623 -0.178797 -1.17414 -1.12331 4.16886e-06 1.25074e-06 1.22602e-05 
214 2 25.8729 16.4789 16.7043 0.0317837 0.202063 2.14574 1.70602e-05 -5.22152e-06 3.28095e-05 
215 1 46.6944 22.347 18.4448 -3.16319 -1.34442 3.43978 -3.61127e-05 -5.87218e-05 1.85205e-05 
216 2 34.9861 30.8592 24.557 1.2566 0.0369317 -0.562366 2.69971e-05 -2.65264e-05 -1.29633e-05 
217 1 10.5745 11.615 2.15513 -1.06049 -1.47537 -3.5988 4.38307e-06 2.6872e-05 3.05308e-05 
218 2 50.4406 25.2406 32.4791 1.14157 -1.09907 -0.518493 5.32798e-06 -2.48836e-05 -1.49701e-05 
219 2 33.0868 40.5404 20.4314 0.496179 -2.5388 0.742552 2.55782e-05 1.41644e-05 -2.61645e-05 
220 1 51.7945 4.68891 34.9384 1.68933 0.746149 -3.03203 -8.52066e-06 -2.67798e-05 -7.544e-06 
221 2 11.0879 39.6679 20.9791 1.43157 -1.24294 0.0224778 -3.06832e-05 -5.53974e-06 2.74843e-06 
222 2 47.7006 28.3063 45.8576 0.90614 1.26578 1.00206 1.76052e-06 -1.48664e-05 -2.73088e-05 
223 2 23.693 25.8717 5.4408 0.986824 -0.397357 -0.0317053 4.62527e-05 2.45364e-05 -8.19558e-06 
224 1 43.6768 8.30914 6.5459 1.8123 -0.747243 0.213037 6.48461e-06 1.37801e-05 1.40692e-05 
225 2 16.3075 31.6601 45.5407 1.73168 -3.04141 -1.89629 -7.34404e-06 1.84895e-05 2.56187e-05 
226 1 5.68295 35.3189 13.7711 1.34147 -0.191453 2.66182 1.09884e-05 1.89257e-05 -1.09748e-05 
227 2 21.0152 6.66908 9.93062 0.715924 0.500451 -0.455395 -7.04421e-06 3.032e-05 2.76819e-05 
228 2 21.7181 14.2375 51.6949 -1.96159 -0.0700844 -2.35091 3.27207e-07 2.1876e-05 8.77801e-07 
229 2 26.3865 49.9435 9.6186 0.509615 -0.563188 -0.267918 8.86354e-06 -9.29312e-05 1.39308e-05 
230 2 26.8854 19.3526 17.0047 0.110687 -0.252851 -0.90644 4.75575e-05 -3.28842e-05 2.54479e-06 
231 2 26.4226 5.82036 6.1867 -0.94404 2.5981 1.04566 5.2337e-07 -1.09497e-05 -3.99255e-06 
232 2 17.1067 15.8094 32.0919 -0.896201 -1.35045 -2.70603 3.64928e-06 -9.21503e-06 7.57663e-06 
233 2 34.5471 39.5885 38.4292 -0.493924 -0.415768 -0.8625 -7.82072e-06 -5.28737e-06 -2.17436e-06 
234 2 1.86675 48.1427 4.03186 -1.02869 0.478523 1.6023 1.88529e-05 -3.89188e-06 4.29988e-05 
235 1 4.0054 45.0889 0.844328 -1.94822 -0.946568 0.597038 -4.65337e-05 8.3234e-05 -3.72332e-05 
236 1 15.6998 4.33182 39.1965 2.73548 2.56196 -2.39098 -5.09156e-07 -1.14093e-05 6.80667e-06 
237 2 55.2281 56.2675 39.605 0.849352 0.136743 -0.0215588 -4.77198e-06 -4.08866e-06 -3.16722e-06 
238 2 35.5518 30.3189 13.5178 -0.633014 1.78629 -0.497472 -1.08567e-05 2.17182e-05 1.22105e-05 
239 1 46.0844 26.6063 25.697 -3.03112 -0.0721385 -3.54311 -8.09539e-05 -1.31075e-05 -2.4333e-05 
240 2 38.0936 36.0358 22.1367 -1.49588 0.0991302 0.652305 -2.24428e-05 1.49085e-05 -2.72827e-05 
241 2 5.78952 13.6465 34.4454 1.74122 2.11531 -1.45651 -4.17679e-05 2.08511e-05 6.27428e-06 
242 1 12.6944 21.3743 36.8529 1.00712 1.48252 1.10658 -1.21602e-05 -3.54666e-07 -1.79255e-05 
243 2 52.6252 36.9491 38.6794 0.766155 -0.0868307 -2.54067 -1.42873e-05 -2.16932e-06 -2.29009e-05 
244 1 32.78 1.38223 45.1024 -2.31386 2.77171 0.680275 1.92335e-06 -1.85144e-05 6.11381e-07 
245 2 32.4497 40.6893 5.43931 2.14905 0.389616 -1.36393 4.05531e-06 -9.02886e-06 -2.3123e-05 
246 2 17.3128 6.9447 14.5234 -1.07652 -0.521282 0.891453 1.6168e-06 1.94509e-05 2.09658e-05 
247 1 34.8711 51.4288 53.9761 -0.100689 2.89081 3.04882 3.21379e-05 9.7215e-06 -1.59444e-05 
248 1 3.15868 48.6097 10.9321 -1.67359 1.40589 0.912795 2.77682e-05 1.94308e-05 4.59639e-06 
249 2 32.8823 7.17172 28.1429 -3.1946 0.144551 -0.131817 -3.15604e-05 4.31863e-06 1.45292e-05 
250 2 49.8996 37.7235 54.4803 0.426633 1.07239 -1.36001 1.93352e-05 -5.35191e-06 -1.7855e-05 
251 2 19.4708 54.274 6.91254 -0.073817 0.889166 -0.913696 1.70887e-05 5.64355e-05 4.76227e-05 
252 2 3.26602 10.9935 42.2727 -0.344651 -1.00827 0.00458204 -5.42126e-06 -2.21481e-05 8.13253e-06 
253 1 51.4703 30.8777 23.1147 -1.13775 1.26669 0.723796 -9.27134e-06 2.69652e-05 -4.13507e-05 
254 2 33.666 18.6186 21.4522 -1.99423 1.53962 -0.565285 2.27208e-05 5.99472e-06 -2.42844e-05 
255 2 40.2304 35.1786 54.107 -1.88651 -0.275442 -0.573525 -9.83188e-06 5.54605e-06 -1.24533e-05 
256 1 30.2736 17.0651 7.92142 -0.363563 -0.922241 -0.729156 1.44002e-05 -1.22973e-06 1.45274e-06 
257 1 34.2586 7.75986 34.1992 -2.20203 0.865051 -1.48664 7.08773e-06 1.41835e-05 -1.06745e-05 
258 2 39.1267 25.3985 36.2045 0.200702 -0.693603 -0.323355 -5.74086e-06 -2.04475e-05 -9.56738e-06 
259 2 54.6303 21.944 39.1056 -0.788214 -0.0656716 -1.10235 6.45844e-06 1.64235e-05 -1.78009e-05 
260 1 44.4121 42.0025 1.40402 1.07498 0.315405 -2.18241 -5.52432e-06 1.27028e-05 7.87097e-06 
261 1 51.6132 38.3185 49.0723 1.19838 -0.229486 3.88883 1.92919e-05 8.10112e-06 -2.50941e-05 
262 1 37.3143 39.2758 41.7944 4.78118 -2.39892 -1.16606 1.26417e-05 -2.34006e-05 -3.38451e-06 
263 2 31.6641 42.6659 31.7834 1.23597 0.997565 -2.33791 -1.42963e-05 -1.09821e-05 -3.14634e-05 
264 2 48.6253 4.47249 8.09084 -0.514784 0.331967 -1.81241 -4.33561e-05 -2.18954e-05 1.18306e-05 
265 2 55.407 30.2354 25.8617 1.07268 0.215461 0.681186 4.75404e-05 8.44966e-06 -2.15298e-05 
266 1 15.2415 31.5712 31.336 1.80646 4.29653 1.09939 -6.5166e-06 -1.0067e-05 1.11263e-05 
267 2 9.89804 53.1935 29.9892 0.530506 1.52489 0.392305 9.03637e-06 -8.00318e-06 1.82175e-05 
268 2 31.6526 45.2634 54.8698 1.38974 -0.521194 0.0897631 9.97848e-06 3.35371e-06 7.03118e-06 
269 1 52.6312 15.2222 4.06212 -2.28159 1.05386 -0.213841 8.4593e-06 2.37146e-06 1.49878e-05 
270 2 16.2759 29.3978 8.19332 -1.21333 0.210531 -0.618146 2.05567e-05 4.21546e-05 -2.0651e-05 
271 2 29.6401 45.62 24.3493 -0.10854 -0.802095 -0.198694 -2.24554e-05 -1.46329e-05 3.23619e-06 
272 1 22.3827 40.9565 17.7794 -0.873875 5.74174 4.17482 -6.08461e-06 -8.38222e-06 1.05789e-05 
273 2 20.0196 30.3636 4.3845 0.841087 1.58912 -0.0786719 1.94392e-05 1.3312e-05 1.37141e-05 
274 1 44.7473 50.6962 21.9379 1.00291 -1.44989 0.129501 2.19283e-05 1.18068e-05 -2.91142e-05 
275 2 47.318 19.803 0.592771 1.50707 0.175691 0.497392 -3.23939e-06 -1.47351e-05 -1.90882e-05 
276 2 25.2895 7.90403 35.7852 1.29648 1.52743 -0.348689 1.76402e-05 -1.89003e-05 1.30988e-05 
277 2 25.6224 43.3271 37.4241 0.405445 0.456 0.522663 8.59865e-06 5.22775e-07 2.1241e-05 
278 2 19.3668 27.2857 49.6399 -0.554397 -0.222559 0.158215 1.42883e-05 2.87628e-06 1.27291e-05 
279 2 3.19206 5.73966 3.78242 -0.0680058 1.21997 0.871245 -1.38502e-05 9.19452e-06 1.09326e-05 
280 2 43.8946 13.2045 14.5947 0.551205 0.0544401 1.68419 -2.6591e-06 2.32123e-05 -1.53234e-05 
281 2 54.8804 15.6789 2.91719 0.867501 -0.065155 -1.19703 1.11757e-05 -2.64961e-05 4.13965e-05 
282 2 51.3707 55.0691 54.2896 1.33785 -0.322786 1.31877 3.09621e-05 5.70204e-05 6.86786e-07 
283 2 32.9205 15.4026 18.3341 1.30722 0.205106 0.210254 1.82118e-05 2.40906e-05 2.37929e-05 
284 2 44.5503 40.8401 44.1585 1.39199 0.422911 1.612 -1.19422e-05 -1.55013e-05 -5.58606e-06 
285 2 20.6249 44.5107 53.8343 0.287645 0.642838 1.41796 -1.68899e-06 -9.01541e-07 -3.9644e-05 
286 2 3.2157 41.8875 51.0171 -0.629441 -2.03991 -0.969395 -1.83537e-05 -2.74545e-05 -8.49168e-06 
287 2 24.9493 33.1711 23.8208 -1.4556 -0.170335 2.28443 2.52647e-05 -1.18937e-05 1.57267e-05 
288 2 42.908 41.4692 41.8744 -0.113182 -0.208673 -0.549655 -1.04196e-05 -1.06666e-05 -2.81718e-05 
289 2 49.8899 33.1375 37.4886 1.11465 -2.22344 -0.837835 -1.25338e-05 3.57807e-06 -1.41851e-05 
290 2 43.994 7.03891 42.3692 0.0783103 0.943949 -1.47132 3.71327e-06 -1.32364e-05 -3.79901e-06 
291 2 41.0232 6.43349 53.4324 -0.144638 -2.00664 -0.696577 1.12289e-05 9.94308e-07 -2.76917e-05 
292 2 21.6144 32.4941 5.52562 0.339026 -0.175452 -1.1435 1.38885e-06 4.10023e-05 5.54228e-06 
293 2 24.6903 46.257 10.1447 -1.92547 -0.0252457 1.63968 1.95524e-05 7.39484e-06 -8.40635e-06 
294 2 50.3386 50.2144 25.7286 -0.9525 -1.33785 -1.12451 -5.3448e-06 -3.66334e-06 8.18879e-06 
295 1 54.4823 13.0056 10.0318 2.08745 -3.07746 0.281177 2.61872e-05 -1.03585e-05 9.40505e-06 
296 2 50.0651 3.53558 54.0323 -0.294413 2.09323 -1.01373 -7.52162e-06 2.27349e-05 -1.06196e-05 
297 1 19.6722 25.1495 51.1049 0.688203 0.81412 -1.38997 2.3649e-06 -2.39166e-05 3.73231e-06 
298 1 36.2486 31.9214 26.6684 -0.591546 1.4711 -6.82079 1.02743e-05 -1.56464e-05 -6.64345e-06 
299 1 52.0234 41.5311 41.4524 2.8222 -0.040916 -1.02514 -6.52634e-06 3.04427e-05 -1.14909e-05 
300 1 52.0503 18.8587 33.428 -2.09419 4.76497 1.78178 5.13219e-06 3.78409e-07 -3.11049e-05 
301 2 12.7218 9.15455 16.7543 1.02152 -0.0776069 -0.834852 -9.17355e-06 -1.8771e-06 2.44284e-05 
302 1 11.9498 23.9991 41.3669 -1.09629 1.88456 -0.232698 -1.19434e-06 6.15422e-06 1.09395e-05 
303 2 47.3919 45.3537 19.1663 1.37145 -1.6128 -0.673033 3.12814e-05 1.99835e-05 -5.70634e-06 
304 2 17.7182 35.2545 48.3347 0.54104 0.584128 -1.576 -2.24345e-05 3.57484e-06 -1.89236e-05 
305 2 47.8915 38.1676 12.859 -0.371836 2.27621 -0.620426 -4.50104e-06 -2.39784e-05 2.37752e-05 
306 2 24.958 18.7544 54.5514 -0.414149 -1.48184 -1.21434 1.99002e-05 1.46024e-05 1.7185e-05 
307 2 51.8596 30.7603 52.4466 0.0291266 -1.72698 -0.0499935 5.60519e-06 7.17648e-06 -2.2778e-05 
308 2 18.4862 48.9471 15.5406 -1.24759 -1.11476 -0.135412 1.5791e-06 5.51661e-06 -8.90072e-06 
309 2 16.5797 1.24591 8.18347 -0.380301 1.0153 0.991326 2.09838e-05 4.83898e-05 1.95195e-05 
310 2 4.38871 32.3538 21.4299 2.40919 -1.53222 0.272993 7.08324e-06 -3.84833e-05 -7.40873e-06 
311 1 38.9321 32.8549 4.78212 1.30654 -3.40185 -2.59125 2.90734e-05 2.69813e-06 2.04952e-06 
312 1 34.2291 16.961 42.8675 0.71184 -0.149635 -2.09162 4.56139e-06 1.61232e-07 1.04964e-05 
313 2 0.790324 21.5315 46.2185 -0.342318 0.679525 0.451997 -9.4508e-06 2.37243e-06 2.48766e-07 
314 1 19.5874 28.9123 55.9215 -1.93656 -2.02514 -1.3921 -5.5619e-06 -4.85895e-06 7.35611e-06 
315 2 46.7994 24.1791 0.855477 1.16483 0.756143 1.16524 -5.90718e-06 -1.54268e-05 6.66535e-06 