ITEM: TIMESTEP
21240
ITEM: NUMBER OF ATOMS
11664
ITEM: BOX BOUNDS pp pp pp
0.947816 56.0193
0.947816 56.0193
0.947816 56.0193
ITEM: ATOMS id type x y z vx vy vz fx fy fz 
1 1 6.21431 35.0324 25.1386 3.24933 -2.25056 0.385951 -3.98607e-06 7.25492e-07 1.93677e-07 
2 1 29.6457 35.9732 47.2989 4.00328 -2.35148 -0.516346 -1.84112e-06 -8.06797e-06 2.22596e-05 
3 1 49.4244 34.931 19.0081 0.159814 -2.39589 2.44641 -6.07438e-06 2.8243e-06 7.90638e-07 
4 2 9.41093 3.59509 41.3036 -3.51457 -1.88025 2.37877 1.5849e-05 1.26395e-06 1.48548e-05 
5 2 51.4899 52.8057 29.3998 -0.985121 -0.157881 -1.72738 6.82853e-06 1.39104e-06 -1.09198e-06 
6 2 13.3137 20.1968 20.8494 -0.764376 1.28526 0.916552 1.01233e-06 1.52106e-05 1.34508e-06 
7 1 51.0147 29.6872 44.3313 0.088716 -0.265576 0.594332 -1.37451e-05 4.17889e-05 -3.66913e-05 
8 2 19.8648 2.19751 28.0628 -0.510459 0.541168 0.403827 1.22356e-05 5.18448e-06 -8.06502e-06 
9 1 47.7527 26.0433 40.3802 -1.07233 0.148987 -0.569639 4.06873e-06 -6.82708e-06 1.21765e-05 
10 1 33.6585 7.46659 43.6237 2.72861 -1.38017 4.10199 3.75244e-06 -1.52464e-05 1.01125e-06 
11 1 39.6327 49.6281 22.008 -1.08239 0.930965 2.24466 -7.03547e-06 -6.79903e-06 7.29802e-06 
12 1 36.981 42.3526 8.5957 -5.26824 -0.479355 -0.164518 1.47078e-05 -6.50429e-06 2.31546e-06 
13 1 52.9861 33.8987 16.3668 -2.35644 -2.77644 -1.40126 -1.39041e-05 2.55955e-06 3.17375e-06 
14 1 35.2764 4.04938 50.3293 -0.46878 5.30131 0.687244 -1.05131e-05 -1.69528e-06 -5.77809e-06 
15 1 28.897 49.5723 6.8078 -0.994187 0.270821 -1.31434 2.39435e-07 -1.42028e-06 7.19601e-06 
16 2 30.2232 19.7067 20.7348 -0.322033 1.26361 -0.0545695 -9.24599e-06 -2.72867e-06 1.08135e-05 
17 1 31.7513 43.5564 54.8475 2.99818 0.385673 0.597072 -9.87167e-06 2.8678e-06 -4.86049e-06 
18 1 45.8399 49.3589 10.8198 -5.8692 2.66953 1.60914 -2.58518e-06 -5.16414e-06 4.82149e-06 
19 1 30.3617 46.0784 52.1568 -3.66987 1.69472 -0.0508871 -2.74129e-05 -3.05086e-05 -1.94338e-06 
20 1 42.9344 45.9097 3.34444 -3.11583 0.751717 1.14765 1.19806e-06 1.00799e-05 9.38801e-06 
21 2 27.2234 21.3932 10.9256 0.125153 -0.995211 1.58917 -8.46121e-06 5.08131e-07 1.02655e-05 
22 2 38.7284 34.4932 53.7355 0.0389078 2.03687 -3.70534 5.78944e-06 -3.60356e-06 -5.40882e-06 
23 2 53.601 26.4124 7.66102 -1.36794 -1.00899 -0.0921567 2.4971e-05 3.0897e-05 2.41585e-05 
24 1 2.23597 50.8145 30.7945 0.892577 2.58523 -0.114499 4.9789e-06 -3.42345e-06 1.33787e-05 
25 1 20.9119 33.8588 13.3354 -3.55122 -2.97406 -1.06387 -5.29575e-07 -5.54988e-06 3.82559e-06 
26 1 22.2437 41.6043 26.2509 -0.150489 4.595 1.1681 1.04229e-06 7.92131e-06 -1.3452e-05 
27 1 38.9338 35.5099 3.89597 -0.761274 -2.03799 1.36719 -1.57276e-07 2.15905e-05 3.0512e-05 
28 2 53.9032 8.99942 9.7216 -0.248332 -0.553519 0.834291 -1.25922e-05 8.31386e-07 -2.95836e-06 
29 2 10.0337 30.0676 55.8935 0.360731 -1.49519 -0.291916 -2.43289e-05 -2.10828e-05 -4.62339e-05 
30 1 41.4335 35.4594 35.5337 0.594501 1.16236 -0.646439 3.41314e-07 3.84917e-06 -3.03737e-06 
31 2 27.2864 42.4859 11.2928 -0.502619 0.150205 0.91555 4.43581e-07 -1.47152e-06 1.06904e-05 
32 2 48.645 10.0603 48.9478 0.504672 1.73428 1.7134 -5.56142e-06 2.42134e-05 1.67254e-05 
33 1 44.9143 49.6328 28.4923 0.232526 -2.58052 2.79183 4.80638e-06 -2.42682e-06 5.87403e-06 
34 2 8.55464 18.0648 14.3844 -0.718335 -0.70667 -0.600424 -1.6036e-06 4.17226e-06 -2.56543e-06 
35 2 29.0583 34.0774 28.476 -0.266033 0.433406 0.50314 2.87385e-06 1.87099e-06 -1.1018e-06 
36 1 48.9739 30.8141 52.736 1.9547 3.38034 0.93321 -1.30828e-05 1.8394e-05 -1.46266e-05 
37 2 50.991 23.5381 41.4356 -3.10525 -2.52709 1.47062 -1.90966e-05 -2.0626e-05 5.28598e-05 
38 2 44.408 7.84014 46.3824 -1.60581 0.583584 0.90726 -1.11591e-05 1.3143e-05 6.08446e-06 
39 1 28.1987 26.4752 3.16971 -1.61144 -0.36108 1.6552 4.38893e-05 2.92751e-05 -1.49407e-05 
40 2 22.729 42.4033 18.0559 1.96748 0.991238 2.36047 -5.09435e-07 2.64406e-07 1.60327e-06 
41 2 11.1273 44.4718 30.8472 0.325235 1.29242 1.2335 2.41822e-05 -3.4679e-06 1.02772e-05 
42 2 34.7779 11.7922 19.5246 1.13011 2.53464 -1.20499 2.19329e-06 5.04447e-06 6.94668e-06 
43 1 20.5458 22.636 30.8017 -3.03049 -2.29618 -1.58324 1.64996e-05 -1.27133e-05 2.34945e-06 
44 1 37.159 39.4818 22.6028 3.69982 2.90007 -1.95905 2.36173e-06 -3.06343e-06 3.67294e-06 
45 1 4.69505 21.2676 18.2728 -1.5652 0.82273 0.150669 -2.75306e-08 -1.19945e-05 1.46183e-05 
46 2 16.8492 18.5185 23.6536 -0.392787 0.70424 0.362418 2.83373e-06 -7.34959e-06 -8.34316e-06 
47 1 55.9735 16.0711 14.8251 -2.33976 1.03441 2.33822 -1.73705e-05 8.83176e-06 4.40764e-06 
48 1 2.32332 37.0309 43.544 1.83942 0.616663 2.8049 1.96333e-05 -1.3158e-05 8.62392e-06 
49 1 26.5149 15.4158 22.0004 1.2054 -2.78335 -2.18266 1.23285e-05 -1.39772e-05 -2.68085e-06 
50 2 27.8438 45.6023 48.2552 -2.45047 -1.0616 -1.80412 -2.89826e-06 5.32518e-06 -8.50359e-06 
51 2 34.102 27.988 12.3768 1.42867 0.644268 0.916387 -1.36809e-06 4.55735e-06 -4.57684e-06 
52 2 24.3251 17.1208 11.8958 -0.487661 -2.02202 -1.07001 -1.53341e-05 3.11899e-06 -1.34588e-05 
53 1 12.7743 47.3279 43.3375 -4.29476 2.90667 -1.60417 1.21269e-06 2.15338e-06 4.55874e-06 
54 2 25.9421 30.0097 49.596 -0.043343 -0.562294 -0.830095 4.546e-06 4.61436e-06 -1.12233e-05 
55 2 53.9044 13.7869 37.7367 -0.0288019 0.35569 0.104318 -4.9486e-05 2.92835e-05 2.57494e-05 
56 2 38.6563 13.9947 39.6595 -0.871301 1.45339 1.74193 -4.17476e-06 5.63523e-06 4.01325e-06 
57 1 30.6442 36.1251 31.7938 -2.12787 0.453321 2.28688 9.71661e-06 -4.16932e-06 -3.52086e-06 
58 2 42.8625 3.51232 5.18599 0.168723 -0.838556 -0.341497 -1.61755e-05 -4.95934e-06 -3.19573e-06 
59 2 51.2364 51.1415 34.1279 -1.35708 0.99532 -1.07733 5.23664e-06 -7.34794e-06 4.1687e-06 
60 1 22.8526 6.62422 34.5981 -0.834307 3.64118 -0.696719 -4.66599e-06 2.09347e-06 5.63456e-06 
61 1 6.77868 13.2066 53.8734 -1.47757 2.90471 3.62632 -2.86173e-05 3.12906e-05 4.60294e-05 
62 2 34.7662 33.0281 1.85843 -1.7826 -1.0638 0.218685 5.01259e-06 6.55915e-06 -7.20229e-06 
63 1 8.8901 25.4731 54.4237 0.634823 1.06889 -0.363612 -2.69874e-05 2.58353e-06 -2.66739e-05 
64 1 47.1014 4.63393 21.5318 -0.685583 1.49134 0.604778 -1.93945e-06 -5.12501e-06 1.16312e-05 
65 1 49.2806 6.03846 4.03225 -2.63329 -1.0291 1.11551 1.84971e-05 8.77869e-06 3.33377e-05 
66 1 53.2573 6.25121 5.03244 4.19394 2.34965 0.434904 -6.34216e-06 2.67648e-05 -4.87674e-06 
67 1 16.8629 3.54998 42.7686 2.88807 1.50693 2.27506 -3.48584e-05 4.24461e-05 -2.15527e-05 
68 1 55.9757 3.05281 18.5228 0.51601 0.3947 0.824628 5.665e-06 9.58524e-06 3.96235e-06 
69 2 48.6742 8.19079 2.92054 1.83417 0.0674326 -0.391919 -9.4201e-06 3.42531e-06 5.86031e-07 
70 1 6.00638 8.82048 39.4642 -1.22845 0.495821 0.891114 -4.70147e-05 -1.13546e-05 -7.8925e-05 
71 2 24.9517 35.8789 3.87441 -3.19874 -0.616607 -2.03276 -1.27789e-05 -2.50761e-06 -1.0483e-05 
72 1 14.359 32.9522 30.2584 1.4276 3.01525 -0.747677 1.06129e-05 2.74911e-06 -9.43466e-07 
73 1 5.66902 23.0933 23.6353 -1.19527 2.98094 -0.628851 3.77694e-06 -1.21814e-05 4.39267e-06 
74 1 14.9112 2.6153 48.3331 -3.50337 0.830277 -3.16682 -1.77529e-06 9.2212e-06 -7.07799e-05 
75 1 34.6585 55.7068 9.34793 -1.29865 -2.13854 4.01475 8.66944e-06 1.9368e-05 -8.58949e-06 
76 2 18.9076 12.7078 12.7729 -0.906687 0.667263 0.381381 -2.32057e-06 -4.72565e-06 -9.24879e-06 
77 2 47.1642 30.1023 27.269 0.114874 0.135613 -3.58732 4.63833e-06 1.26388e-05 3.46136e-06 
78 1 36.1805 48.3386 40.4231 1.53356 -0.267335 -3.44495 7.62886e-06 -5.33373e-06 7.02563e-07 
79 2 15.152 51.9963 34.31 -1.76601 -0.0671607 1.83106 1.59289e-05 -1.90895e-06 -5.25101e-06 
80 2 12.8025 26.1368 47.3707 -0.769218 -0.635657 -0.134032 -3.2239e-06 1.54561e-05 -2.25843e-05 
81 1 7.03131 29.6639 21.8464 -1.23926 1.78928 -2.69717 -8.96919e-06 -1.02443e-05 9.5332e-08 
82 1 17.7692 18.4865 5.0805 0.256707 3.80507 -0.126044 -9.12855e-06 -1.07954e-05 6.91346e-05 
83 1 25.7255 17.1999 52.057 -1.56369 -0.591999 0.363641 -3.21188e-05 -2.72382e-05 3.63259e-05 
84 2 23.7264 11.625 42.282 0.244585 -1.53676 2.79197 5.67808e-05 -1.75535e-05 -1.34353e-05 
85 2 45.0212 35.1543 40.7967 -1.02234 -1.36023 -2.14212 3.93258e-06 3.36872e-06 1.34439e-06 
86 1 33.3647 40.9991 12.0722 -1.76426 -0.138194 1.43003 3.08932e-06 1.00378e-06 4.62387e-06 
87 2 55.1513 45.1572 23.3366 0.590293 -0.534811 0.616752 1.7029e-06 -2.20684e-06 6.23756e-06 
88 1 11.3271 12.7354 13.6591 -1.25449 2.31561 0.311982 -2.40427e-05 -6.2693e-06 -9.08695e-06 
89 2 10.2266 51.1177 35.7442 2.01971 -2.18311 -2.1972 5.84456e-06 1.12801e-05 9.90832e-06 
90 2 10.0775 21.3983 55.4375 -0.501634 -0.56356 0.16151 -8.70634e-06 4.17217e-05 -3.15127e-05 
91 2 15.9937 1.98592 30.6599 -1.04112 1.99399 0.101853 2.17233e-06 -1.50432e-06 4.06588e-06 
92 2 33.4926 37.9952 21.9433 -0.573578 -1.47227 -1.60058 7.76107e-07 4.39027e-06 6.49542e-07 
93 1 43.012 4.23754 7.76803 2.8714 0.994459 0.382939 -1.14659e-05 1.27524e-05 2.42811e-05 
94 1 17.3879 51.4773 33.1187 -2.00956 2.71818 -0.506392 1.86043e-05 -7.05171e-06 -4.72074e-06 
95 1 54.7658 12.4418 48.8108 -1.35225 -0.197009 -1.72265 -8.66986e-05 -3.15128e-05 8.08842e-07 
96 2 20.4672 46.9346 25.8946 0.0862985 1.43062 1.38135 1.2877e-05 1.6452e-05 -6.44837e-06 
97 1 20.5624 43.6506 5.88951 0.86071 -1.69255 1.09613 -3.96309e-06 1.61814e-05 1.51333e-06 
98 2 18.5889 54.1141 54.1711 0.23677 0.342623 1.21916 2.36753e-06 1.33037e-05 -5.2371e-06 
99 2 22.766 47.625 2.65259 0.24544 -0.293337 -0.0564105 -1.11642e-06 -1.43897e-05 4.85726e-06 
100 2 37.4324 14.604 48.6666 0.600972 -1.31656 -0.475415 5.65128e-06 -1.438e-05 -1.57038e-05 
101 2 30.1474 13.6847 44.1892 0.178802 0.212893 1.08191 2.89885e-06 -7.57201e-06 7.89353e-06 
102 2 8.96867 23.0035 48.5676 0.748073 -0.479742 -1.67784 3.52938e-06 3.1819e-05 -9.53644e-07 
103 1 43.3903 55.2351 13.3083 3.09667 1.51997 -0.453778 -9.22649e-06 -4.17469e-06 1.05912e-05 
104 1 4.77711 11.7383 50.0192 -1.79206 -1.52591 -0.381526 4.01395e-05 -1.79445e-05 3.64452e-05 
105 2 35.1926 13.7214 10.9777 -0.477298 1.05796 0.121545 1.09363e-06 1.18623e-06 -1.6838e-07 
106 2 11.3291 19.0696 4.65658 -0.252791 1.11875 0.374016 7.0567e-06 3.70106e-05 1.35111e-05 
107 1 13.944 15.319 37.4012 -0.475135 -2.47146 -2.6159 4.24068e-05 -2.07741e-06 1.1044e-06 
108 2 5.71053 49.3044 17.6081 -0.633049 -1.47498 2.91608 -1.52959e-06 1.44391e-06 2.34074e-06 
109 2 7.01482 48.1386 32.5744 -1.08371 -1.39846 -0.434251 6.95042e-06 6.5731e-06 2.42892e-06 
110 2 2.90584 7.12979 21.1796 0.854771 -1.66675 0.220159 -9.3953e-06 -1.51823e-06 4.94373e-06 
111 1 28.9264 28.867 34.6097 -2.00649 -2.92514 1.00948 2.22726e-06 2.75331e-06 3.37068e-06 
112 2 45.1761 18.5191 17.034 1.5185 -0.823646 -0.783361 6.56797e-06 -4.53222e-06 -8.47839e-06 
113 1 37.4476 7.43219 26.3847 -1.23953 1.46849 -3.29206 -2.49617e-06 -7.63098e-09 -2.07317e-07 
114 1 55.0293 39.8272 36.9352 -1.24316 0.633727 1.20733 1.38679e-05 1.86836e-06 -6.14506e-06 
115 2 1.85725 37.4731 21.0513 -0.207847 2.18987 0.426173 -4.47859e-06 -1.42289e-06 2.28011e-06 
116 2 52.7111 20.0282 14.4233 0.448416 -1.16864 -0.463641 -7.73008e-06 -4.1627e-06 9.28467e-06 
117 2 39.1589 42.9142 26.4423 -2.56047 0.0583627 -1.09334 1.17862e-05 -6.07147e-06 4.9699e-06 
118 2 55.9156 1.12142 20.6831 0.578479 0.130204 1.73943 1.72619e-06 2.95266e-06 5.8832e-06 
119 2 32.3674 39.5758 31.1807 0.386679 -0.172556 -1.26989 -1.18915e-05 -2.07762e-05 -4.05915e-06 
120 2 18.0102 44.785 2.66796 0.16884 0.361194 -1.54224 -2.42896e-06 1.28367e-05 4.326e-07 
121 1 25.1971 47.8476 44.4326 0.161396 1.17275 -0.275824 -4.06396e-06 -6.31083e-06 -1.23073e-07 
122 2 23.1158 3.67317 22.4818 -1.62895 1.06012 -1.01801 -3.04882e-06 -5.04242e-06 2.358e-06 
123 2 42.6428 37.2681 37.0005 0.73378 -1.74139 0.713759 -3.71162e-07 4.7659e-06 -4.12877e-06 
124 2 5.90792 46.1963 34.5401 -0.461644 -0.334597 0.475915 6.50857e-07 -3.31395e-06 4.63939e-06 
125 1 24.2591 50.0453 30.4121 -1.16731 -1.01922 -0.0935677 -4.6675e-06 -5.72944e-06 -6.08877e-06 
126 1 12.5589 13.3259 36.7214 -2.21946 1.6921 -0.55536 3.98203e-05 3.06766e-06 -2.33177e-05 
127 2 25.287 23.9128 25.557 -1.0182 0.0599836 -1.90208 -5.43555e-06 -1.8931e-06 -2.51342e-06 
128 2 2.20997 46.6548 48.2378 -0.29094 -0.169081 1.17739 2.45035e-05 -2.5569e-05 -1.43114e-06 
129 2 4.77077 34.565 47.5563 0.0561624 1.27184 0.190881 3.48171e-07 6.13074e-06 9.94718e-07 
130 2 55.5084 28.2133 29.7433 -1.13566 -0.633032 0.332372 7.22692e-06 -5.10439e-06 -1.38727e-06 
131 2 26.8246 38.7374 1.55838 -1.33823 -1.00461 0.11871 -4.17893e-06 4.7502e-06 -2.24534e-05 
132 2 46.3459 42.8709 54.0639 1.87259 0.573853 -0.163748 -6.15701e-07 -1.06123e-05 1.58174e-05 
133 1 41.3595 9.52587 37.28 -2.42286 -0.0258945 0.0186623 -8.17963e-06 -1.91147e-05 6.59395e-06 
134 2 8.6477 43.7401 40.0265 0.276983 0.619209 -2.18986 -9.35931e-07 -2.38906e-05 4.36596e-06 
135 2 55.1615 47.2163 42.0851 -1.42586 -0.062932 -1.03606 1.74549e-05 1.4666e-05 -4.047e-07 
136 2 37.5398 6.33394 16.9825 -2.73034 -0.564686 -0.823286 5.49724e-06 -1.30488e-05 4.53021e-06 
137 1 21.1969 41.9441 13.8739 0.368733 0.901447 0.173232 2.70217e-06 -2.76778e-07 -3.13005e-06 
138 2 31.5641 54.2886 18.581 1.1646 0.536677 -0.730828 5.56062e-06 3.63481e-06 6.75498e-06 
139 1 16.7875 36.7423 37.6264 2.4066 0.566806 -1.1459 -2.06088e-06 -1.70376e-05 -8.56733e-06 
140 1 47.0804 12.3978 44.0441 -4.57164 0.604984 -1.51228 -2.1304e-05 -7.15446e-06 -6.12465e-05 
141 1 2.12373 27.9635 34.1552 -3.54987 -3.90082 -0.21765 4.87585e-06 8.11298e-06 5.75805e-06 
142 2 2.76715 28.9115 23.6831 -2.15659 -0.0812512 -1.00528 2.9741e-07 -1.05418e-06 1.52998e-06 
143 1 8.44975 19.2727 1.03167 1.79187 0.211435 -0.0175626 8.46431e-05 0.000111901 2.34574e-05 
144 2 54.3984 44.9813 17.5269 -1.56099 -1.4398 -1.2643 8.90699e-06 7.19081e-06 3.53434e-06 
145 1 50.9663 42.602 53.0079 -1.47572 1.05741 -1.31715 -1.06377e-05 1.39626e-05 1.58293e-05 
146 1 39.4551 46.088 38.5565 -2.00199 -1.226 0.385879 -5.91279e-06 -5.12344e-06 2.31804e-06 
147 1 34.1725 38.9085 29.2893 -0.827766 -2.36 1.0881 7.21437e-06 -5.8186e-06 -4.73857e-06 
148 2 15.6925 6.95081 36.3467 0.324347 -2.54625 1.08406 1.37463e-05 2.1174e-06 -7.71697e-06 
149 1 9.12184 17.2457 48.4553 -4.07013 3.5913 2.67432 -5.535e-05 -4.21928e-06 7.98728e-06 
150 2 7.829 34.9452 29.4693 -0.216767 -1.33718 -2.06078 -4.36735e-06 -4.65598e-06 1.20025e-06 
151 2 39.0709 24.084 26.9466 -0.690946 -1.11251 -0.121165 9.40374e-07 -3.50534e-06 -1.08973e-05 
152 2 54.4976 2.89501 6.71209 -1.25137 -0.223488 -0.0120391 4.12317e-06 1.68984e-05 5.57137e-06 
153 2 46.4348 49.3077 38.9412 0.730213 -0.585566 1.02093 -5.64231e-06 9.39831e-07 -1.51383e-07 
154 1 32.1386 36.1438 26.5528 -0.143011 2.10774 4.1142 -2.22219e-06 -1.06215e-06 -3.18939e-06 
155 2 10.4636 49.1559 47.6344 -1.90018 0.48041 -0.786948 -2.37128e-06 1.58466e-05 -6.32633e-05 
156 2 26.4081 30.0736 40.0748 -0.832914 0.127682 0.857653 1.30059e-05 -4.42413e-06 1.93701e-05 
157 1 25.2568 36.1865 48.4853 -0.430027 2.62014 -0.460451 -1.63731e-05 -2.12057e-05 -5.09453e-07 
158 2 55.756 15.1513 35.8266 0.430595 -0.838728 -1.41975 -4.09581e-06 1.48877e-05 2.44742e-05 
159 2 37.9378 33.9005 5.79019 1.14504 -0.451494 1.24025 -3.01932e-06 -7.53128e-06 1.16011e-07 
160 2 15.9308 39.3179 23.5597 -0.445407 0.856973 0.0340339 -4.98099e-06 -3.15163e-06 -8.69357e-06 
161 2 55.3082 27.1687 49.207 -1.13639 -0.554593 0.164899 -4.6845e-05 -1.29206e-06 -1.41156e-05 
162 2 47.379 26.8467 36.0484 1.83063 1.20219 -1.00729 -1.01313e-06 1.47424e-05 6.70358e-06 
163 1 11.2971 53.4513 35.2326 0.730633 -0.0152997 0.589408 5.06743e-07 -1.08491e-05 -2.18208e-05 
164 2 31.7242 1.97144 25.9029 0.437538 -0.211288 1.95657 8.22043e-06 -6.24748e-06 -5.17467e-06 
165 1 27.3471 10.6797 19.5158 2.53801 -1.80858 2.37331 -4.38107e-06 3.63282e-06 -7.62694e-06 
166 1 22.964 25.5087 48.9452 -2.12341 -3.69822 0.512804 -1.91608e-05 -1.85442e-05 3.38544e-05 
167 2 51.4856 45.5133 26.1853 -0.744227 0.797649 0.311554 9.46237e-06 -5.1634e-07 1.10202e-05 
168 2 7.54324 8.07361 55.4171 0.183684 -0.193354 -0.121713 -9.6519e-06 -9.65011e-06 -7.19715e-06 
169 1 42.6538 8.87735 9.03455 0.754105 -0.604295 -2.53457 -4.74973e-06 1.07118e-05 -2.40339e-06 
170 1 18.8502 29.6853 34.6434 3.00368 -0.581897 0.289743 4.17202e-07 -7.69271e-06 -1.02614e-06 
171 1 13.2029 31.1475 27.0223 -1.10909 0.622007 0.0509297 2.59967e-05 -7.09355e-06 -7.59384e-06 
172 2 14.4115 18.6792 40.945 0.0557249 0.207982 -2.49991 4.6904e-05 1.73764e-05 -4.48104e-05 
173 1 4.83651 4.37488 8.15893 1.07199 2.60376 0.835485 -2.82775e-05 1.57746e-05 -7.43798e-06 
174 1 24.6092 54.1086 38.3866 -1.16983 3.44438 2.78259 1.03836e-06 4.86696e-06 1.03742e-05 
175 1 29.2449 7.60803 43.7175 -1.90927 -1.38225 -1.20461 -5.83583e-06 1.03799e-05 6.91593e-06 
176 2 32.3196 38.3201 36.372 -0.0486581 0.0453341 0.817953 5.65385e-06 -6.52725e-06 -1.2289e-05 
177 2 44.4231 39.0913 2.13464 -0.262855 -0.72065 0.364483 -3.08232e-05 -4.98195e-05 4.12405e-05 
178 2 53.8847 23.0726 22.1712 -1.66488 0.173952 2.47318 -2.65329e-05 2.55305e-05 1.32989e-06 
179 2 46.6648 35.1607 26.9685 -1.53634 0.180663 -1.94555 9.35464e-06 3.00779e-06 1.25833e-06 
180 2 5.84067 53.061 34.2472 1.05112 -0.778207 0.353707 2.05175e-05 4.0856e-06 8.43845e-06 
181 2 42.1788 5.49703 35.3128 1.22955 -0.728412 -0.51296 -6.52993e-06 6.79365e-06 5.76754e-06 
182 1 27.6663 46.2359 40.8168 1.6381 -1.38413 0.0124909 -1.99525e-07 -1.03348e-05 -1.93468e-06 
183 2 32.7867 11.0046 36.2364 0.354049 0.274462 -0.519701 3.465e-06 6.58159e-06 1.50326e-06 
184 2 54.0976 2.57036 22.5886 -0.23644 -0.664017 -0.168364 3.63059e-06 1.76859e-06 6.33687e-06 
185 1 15.9977 16.7067 30.105 -0.462178 -0.6451 -0.276182 -1.89805e-06 -5.51828e-06 -1.88754e-05 
186 1 22.1513 11.0307 44.9973 -4.66019 -1.14352 0.67621 2.10241e-05 -8.53849e-06 -1.93662e-05 
187 1 53.9241 25.1439 3.5152 -3.16791 -2.84842 2.3593 -4.01748e-05 3.10212e-05 -5.3746e-06 
188 1 51.9917 19.4381 44.1929 1.00647 -1.22813 -1.3059 2.22656e-05 5.22185e-06 -2.57532e-05 
189 1 53.3623 8.08129 27.0276 0.697558 0.577941 3.72462 1.17864e-05 1.77385e-05 1.17229e-05 
190 2 2.44748 26.8452 51.3593 -0.161363 0.80641 0.6883 4.04526e-05 4.91483e-05 -3.72768e-05 
191 1 26.5104 22.5182 27.1781 -2.88085 1.69398 -0.219408 4.98229e-06 -1.3776e-06 9.31534e-06 
192 1 8.12686 34.7194 2.22637 -0.703519 -0.975771 -0.860149 1.87246e-05 -9.61641e-06 9.42029e-06 
193 2 1.16679 14.2021 27.4969 -0.587896 0.797436 -0.626787 2.82829e-06 -3.69753e-06 -5.98139e-06 
194 2 44.5801 23.442 51.6245 1.28676 -0.00265373 1.52692 9.17539e-06 3.29508e-05 2.22604e-05 
195 1 53.0157 2.62922 33.3252 -2.82503 -3.42771 2.56912 -5.35675e-06 -4.09172e-06 1.44686e-05 
196 2 36.7271 34.7233 34.4001 1.12924 0.0754152 0.0907353 2.92687e-06 -2.66051e-06 4.99322e-06 
197 2 11.6767 17.2826 44.8508 0.989773 -0.324178 0.277356 -8.84816e-05 -7.73607e-05 -7.53151e-05 
198 1 19.7899 35.8307 55.8744 -3.37778 -0.466586 0.735671 -6.27927e-06 -2.62452e-05 -5.16251e-06 
199 2 41.9763 55.8778 4.7735 0.432993 -0.88279 0.0853844 -4.45206e-06 -1.0604e-05 6.67244e-06 
200 1 5.18269 29.2397 53.7977 -1.97699 1.74982 0.0493713 -8.72268e-06 6.7027e-05 -1.98452e-05 
201 1 37.9216 50.6336 44.6872 -3.60349 -2.70571 0.529848 1.10585e-05 -4.49771e-07 -1.08947e-05 
202 1 39.5118 2.72976 8.84634 -1.22197 1.35426 -1.80674 -1.34971e-05 -1.5239e-05 5.02153e-06 
203 1 21.2598 32.0296 23.9906 0.435383 0.00298435 -2.62501 7.95042e-07 -3.28084e-06 1.05141e-05 
204 2 30.1376 29.2056 30.0648 -0.0451498 0.0774582 1.53133 -3.68095e-06 1.95747e-07 9.93524e-07 
205 2 4.62278 55.9537 51.1872 0.447769 -0.132278 1.61105 -1.11868e-05 -4.67717e-06 1.21367e-05 
206 2 41.7726 30.305 5.58284 -0.289266 0.884317 -0.470243 1.92026e-06 2.24728e-05 -6.66554e-06 
207 2 46.331 41.353 17.5224 -0.318572 -0.483009 0.238404 9.40256e-06 6.49739e-07 -7.05211e-06 
208 1 17.9521 2.18387 44.2759 1.83494 -1.13942 -2.37243 -9.70887e-06 2.13876e-05 3.56319e-06 
209 1 18.3233 22.0142 29.7728 -1.44957 2.88202 -0.339092 6.48888e-06 3.12491e-06 -2.83479e-06 
210 2 11.8775 11.0328 22.6758 0.982661 1.85444 -0.373846 5.54275e-06 1.85375e-05 -2.87794e-06 
211 1 41.7576 45.8928 23.892 0.837364 -1.15809 0.988685 9.11523e-06 4.06867e-06 1.07639e-06 
212 1 34.8309 27.2788 17.3443 2.07894 2.52443 -0.631407 -2.7424e-06 6.42436e-06 7.26619e-06 
213 2 16.9227 25.6055 35.7668 -2.08498 1.38778 -1.68397 -5.91932e-06 -2.23483e-06 -9.34033e-06 
214 2 5.57234 31.5478 55.065 -0.149121 -0.582959 -1.44494 -2.99911e-05 1.73257e-05 -2.01033e-06 
215 1 18.9571 6.18167 48.1505 -0.846701 -5.16935 0.748261 -4.65339e-05 2.64499e-05 -2.12494e-05 
216 2 10.8512 41.1359 48.0102 0.193542 -0.471339 0.414901 1.06031e-05 9.95261e-07 -3.81122e-06 
217 1 44.0519 48.3836 3.27801 -4.20277 0.293932 0.903502 -1.7916e-05 2.7804e-05 9.05985e-06 
218 2 38.5268 29.1601 14.1119 -0.0175334 -4.20975 -0.842837 -5.92752e-06 1.16537e-05 -3.58622e-06 
219 2 35.9794 27.7866 26.6386 0.790637 1.51382 -0.754692 6.56286e-06 -4.31557e-06 7.42317e-07 
220 1 20.7642 26.3586 4.94521 5.05858 0.444821 -2.6355 -2.5107e-05 2.74243e-05 -3.20974e-05 
221 2 47.2077 45.6437 13.6745 -0.449504 -0.448532 -0.586084 -5.69918e-06 -1.20613e-05 -3.44596e-06 
222 2 33.4064 10.1252 48.4065 -0.929607 1.96357 -0.566847 9.30797e-06 1.11462e-05 1.56027e-05 
223 2 48.3281 15.2291 9.022 1.57316 0.502007 -1.6798 -2.87498e-08 4.40696e-05 1.14457e-05 
224 1 4.48286 54.1774 39.266 2.60459 -0.420876 5.29228 8.7797e-07 2.15323e-06 2.87454e-05 
225 2 11.2408 9.61205 4.28797 0.94064 -0.148232 -0.949998 -1.17807e-05 -2.97678e-06 -1.13246e-05 
226 1 6.64002 38.4502 12.3844 -3.08072 -1.84391 -1.56516 1.65366e-06 -1.69199e-06 5.32164e-06 
227 2 47.8487 26.4227 46.3395 3.04069 -2.74261 0.387928 4.05613e-05 -7.64452e-06 3.08934e-05 
228 2 19.9766 50.8552 37.3186 -1.44747 0.130966 0.281724 -1.16407e-06 -3.58343e-06 2.57417e-06 
229 2 3.09863 22.9578 17.1344 0.597622 -0.336936 0.0176561 -3.14049e-06 -2.15329e-06 -2.62701e-06 
230 2 50.3978 39.592 22.5549 0.7819 -1.42202 0.321862 2.6327e-06 4.90839e-06 -8.40913e-07 
231 2 4.91766 44.2538 32.258 1.58584 -0.252907 1.75505 1.25448e-05 -4.68852e-06 4.2492e-06 
232 2 21.678 29.8756 41.3054 1.14464 1.1769 1.29589 2.10038e-05 -7.47215e-06 7.35335e-06 
233 2 9.37736 4.86633 29.629 0.166087 -0.495117 1.16719 3.51643e-06 4.64446e-06 1.48547e-06 
234 2 49.468 22.5145 3.7573 0.888328 1.91174 -1.3708 1.17985e-05 -5.51722e-06 -4.14301e-05 
235 1 18.8091 14.7137 19.308 0.997492 0.653249 -0.395797 -3.27525e-06 -6.33529e-07 9.90875e-07 
236 1 24.722 10.0689 49.6403 -5.62602 2.67853 0.286399 -3.01977e-05 3.09994e-05 1.36398e-05 
237 2 29.9833 23.1742 49.1101 0.333883 -0.119076 2.14011 -2.82497e-05 1.90014e-05 2.15845e-06 
238 1 29.4229 7.20322 8.03391 2.55308 1.20361 -3.12571 -1.24684e-05 1.0538e-05 1.54468e-05 
239 1 20.1942 20.1338 33.7906 1.23257 -1.83488 1.25071 1.00165e-05 2.87289e-05 2.70266e-06 
240 2 35.9437 50.5229 52.079 -0.284195 1.82297 1.0706 -1.82224e-05 -6.82468e-06 -1.07259e-05 
241 2 8.39641 22.493 44.0685 0.954314 0.290189 0.998726 -8.31845e-05 -5.15672e-05 4.25227e-05 
242 1 39.5779 3.82955 49.6564 -0.978236 -4.22187 -1.8441 7.80271e-06 1.09717e-05 -2.94832e-06 
243 2 54.1326 10.6166 54.0721 -0.923657 -0.499333 0.353398 -1.27719e-05 -1.53795e-05 -6.89518e-05 
244 1 46.5208 40.7067 55.8985 -1.12763 -0.813959 -0.140181 4.45519e-06 2.4959e-05 5.60219e-06 
245 2 20.4364 8.11095 54.5426 1.54663 -0.309509 0.0517409 1.95403e-06 2.16988e-06 1.16052e-05 
246 2 30.6296 5.81226 51.7691 0.910391 -0.522276 -0.0495304 -6.22701e-06 -2.68216e-05 -1.37996e-05 
247 1 9.77222 54.2013 46.8095 1.1762 -0.535236 2.47348 -2.37632e-05 2.08592e-05 -3.82345e-06 
248 1 49.1301 39.8453 40.2756 -1.9869 -3.30407 2.06188 3.85443e-06 -9.27913e-06 2.54823e-06 
249 2 48.509 41.4224 15.9373 -0.142444 -0.344456 1.02607 -2.58756e-06 -1.91008e-06 -2.55435e-06 
250 2 35.288 19.9101 39.5204 -1.5936 -0.30177 -1.08149 -1.52306e-05 2.74871e-06 6.18692e-06 
251 1 51.7469 11.1367 19.1252 -0.499311 2.99835 -1.2735 -1.36125e-05 4.58557e-06 1.23608e-05 
252 2 23.5658 45.1145 51.118 1.9437 1.20863 -1.0163 2.57752e-05 -4.40763e-06 8.33641e-06 
253 1 25.5454 48.6002 4.14966 2.35285 1.91161 2.35713 1.21495e-05 -3.86633e-06 -1.05601e-05 
254 2 19.1826 17.3895 42.3024 1.10205 -0.688529 1.22212 -1.52285e-05 1.47157e-05 4.52215e-05 
255 2 29.0991 40.9082 44.8634 2.11931 0.820117 0.255872 2.25838e-06 -5.63726e-06 3.02603e-06 
256 1 7.07475 12.7823 15.31 1.78243 2.4332 -0.38142 -7.11927e-06 1.67619e-05 2.46392e-05 
257 1 36.6093 42.1571 15.3076 0.910208 2.87133 -0.834798 2.25362e-06 2.60209e-06 4.9012e-08 
258 2 42.1019 1.87658 28.463 -0.661943 2.97768 0.943566 4.67093e-06 5.50759e-07 3.35243e-06 
259 2 53.7896 13.4894 53.3173 0.130742 1.26108 0.880102 7.60499e-05 -1.12179e-06 -9.23525e-06 
260 1 28.803 17.8368 11.7007 0.421252 -0.408291 -1.53485 -1.21011e-06 1.28761e-06 -1.12377e-05 
261 1 25.044 39.8822 25.8642 -3.314 -0.434594 -0.462873 1.01483e-05 1.54401e-07 -9.45363e-07 
262 1 30.4744 6.6598 46.4958 -2.15594 -1.70659 3.75467 -5.09892e-06 -9.33227e-06 -1.65236e-06 
263 2 9.97299 24.7116 15.7591 1.01176 0.142023 -0.95346 -7.4968e-08 -2.5018e-06 -1.10773e-05 
264 2 22.4997 3.84364 53.7228 -1.88886 -0.712102 -0.183267 -5.16172e-06 7.42825e-06 -9.32058e-06 
265 1 29.0789 3.55178 25.6194 0.670059 -1.62556 -4.42584 4.8339e-06 1.28465e-06 8.08625e-07 
266 1 1.28157 51.7398 38.2861 1.24547 0.535178 -0.715549 -7.55482e-06 -5.71335e-06 -7.46905e-06 
267 2 20.7795 28.6598 17.58 -0.2879 0.674213 2.20761 9.00847e-06 8.70339e-07 5.07037e-06 
268 2 33.8145 36.2785 5.214 -0.57694 0.104005 -2.61693 -3.4381e-06 5.7241e-08 -1.3864e-06 
269 1 19.2186 46.2727 11.1391 -2.28697 -2.14395 -1.2304 3.47117e-06 1.46259e-06 7.05754e-06 
270 2 12.1027 7.19253 40.9616 -1.64012 -0.258401 0.00958944 -2.12723e-05 1.08253e-05 -2.42841e-05 
271 1 47.3108 44.4521 34.2804 -2.7012 2.11172 2.26202 3.07477e-06 4.38923e-06 -3.87645e-06 
272 1 20.9097 4.32056 7.55174 2.98869 0.92555 5.24218 -1.82585e-06 9.28654e-06 -1.19047e-06 
273 2 25.9045 31.6574 7.38863 0.702737 -1.25494 0.701352 1.06304e-06 -3.33019e-07 -4.53945e-06 
274 1 27.8857 26.8726 55.9137 1.15248 1.14822 -2.15397 1.78159e-06 5.93979e-06 -1.02245e-05 
275 2 53.5887 15.3872 13.6653 -0.27559 -0.919597 0.490208 3.80445e-06 2.4602e-05 -2.81241e-05 
276 2 10.9287 53.1216 19.9036 -0.653612 0.726348 2.22561 6.19372e-06 2.42465e-06 2.91328e-06 
277 1 49.999 39.4861 50.1354 -0.520788 -2.01641 -0.182697 -4.25257e-06 5.77612e-06 7.97982e-06 
278 2 18.9376 6.5183 8.49265 0.616012 -2.18457 -0.142389 -9.09989e-06 -7.38635e-06 -6.65539e-06 
279 2 47.1342 38.0932 44.4796 0.794421 0.709662 0.664209 -3.71998e-06 -1.87246e-05 4.7928e-06 
280 2 16.7933 25.3232 11.3084 -1.3316 -0.320243 0.714869 1.08912e-05 1.44138e-05 1.79648e-06 
281 2 3.82137 41.1867 28.915 -0.374005 -0.669582 0.641775 9.46834e-06 -1.53863e-06 -9.13491e-07 
282 2 48.7645 7.47735 6.01795 1.51056 -1.25353 0.607426 -2.26013e-05 1.8156e-05 2.75375e-05 
283 2 6.50076 34.3656 11.064 0.742261 -2.43394 -2.16346 1.19765e-05 1.82172e-05 -7.53979e-06 
284 2 9.76513 34.3181 53.8605 0.550364 2.05091 -1.31626 -1.61733e-06 -1.412e-05 -1.95545e-05 
285 2 33.5452 29.5951 26.57 -1.42439 0.600418 3.12688 4.28071e-06 -3.85004e-06 -1.91219e-06 
286 2 49.9094 30.9027 35.8056 0.529559 3.64742 -0.364388 1.36387e-05 1.00873e-05 5.77157e-06 
287 2 8.63545 6.38015 26.9727 0.0991183 -0.897085 -1.37779 -1.41831e-06 -3.29827e-06 -6.15075e-06 
288 2 41.7142 47.9234 4.43604 2.88717 0.0612558 0.511255 -5.23941e-06 -3.05909e-05 2.59235e-06 
289 2 7.90514 27.3711 38.763 1.07275 -1.48434 -2.161 4.01078e-05 3.1998e-06 -4.92151e-06 
290 1 31.73 20.8779 19.1812 -2.21021 2.87395 -2.31223 3.35219e-05 -7.17897e-06 -1.84428e-05 
291 2 23.1341 31.1081 34.1554 -0.591566 -1.75788 0.827049 3.71666e-06 -1.09262e-05 -3.43497e-06 
292 2 25.5563 11.274 27.4761 -1.86275 -0.376837 0.00720164 3.34641e-06 -5.08439e-06 -3.06995e-06 
293 2 33.6289 26.103 10.2942 -0.0926696 -0.153063 0.798762 -5.32186e-07 1.16535e-05 -1.36608e-05 
294 2 20.0239 32.2566 11.2137 -0.166989 -0.618529 0.646187 -1.52111e-05 7.22634e-06 -1.17665e-05 
295 1 7.11945 44.7411 6.2896 -0.744531 -0.516298 -2.6956 2.26795e-06 1.97161e-05 7.89029e-06 
296 2 39.9062 31.1952 43.0183 -0.497096 -0.604362 0.0692182 3.66442e-06 2.76341e-07 -2.16957e-06 
297 1 19.4783 23.7815 21.7324 0.316963 -3.30015 1.08205 -3.05389e-06 6.02899e-06 5.56984e-06 
298 1 10.9528 29.5665 36.0216 -2.18432 2.62145 0.404427 -6.79325e-06 5.37618e-06 2.53254e-05 
299 1 21.5466 23.8821 44.5898 -0.258439 -2.26313 -1.14647 9.18314e-06 2.7356e-05 -3.09408e-05 
300 1 2.41571 37.6784 48.2511 1.16294 4.37427 3.72989 1.88039e-05 1.08903e-05 3.96821e-05 
301 1 50.2164 46.6945 54.54 0.619169 -2.66926 0.934754 1.72565e-05 4.93742e-06 -3.91257e-05 
302 1 44.4413 44.3677 23.0143 -1.86844 -0.820365 -1.75476 1.0136e-05 -1.01404e-05 -1.42366e-05 
303 2 54.91 38.5543 25.6975 -1.60901 0.87679 -0.623215 1.24141e-06 6.22882e-06 6.22111e-06 
304 2 2.11127 41.6315 13.7744 1.68724 -0.0272135 1.64999 -7.03522e-08 1.33656e-05 -1.62661e-06 
305 2 21.3427 37.606 54.4763 1.36721 -2.2155 0.173889 1.08518e-05 -4.28815e-05 -5.05564e-05 
306 2 36.6049 41.349 49.3957 0.12804 0.723849 -0.98382 9.19926e-06 -3.92391e-06 -4.34845e-06 
307 2 22.0708 6.14525 32.1473 -1.32987 1.05025 -1.42902 3.63643e-06 -1.07227e-05 7.8004e-08 
308 1 4.82715 19.6562 30.3872 0.0698441 0.663475 -2.09098 6.69499e-06 -1.88565e-06 2.90856e-06 
309 2 28.8333 40.9579 52.4471 0.419792 0.732118 0.95166 -1.37599e-05 -3.06463e-06 3.46608e-07 
310 2 14.4095 40.2323 39.6436 0.134658 0.689733 -1.18918 2.72111e-07 5.90459e-06 -2.06235e-06 
311 1 28.6108 14.8435 10.0265 0.36869 2.01156 -4.93342 -7.09124e-06 1.91965e-07 -1.64339e-05 
312 1 11.7875 14.3055 11.7878 0.155844 -1.39806 1.32853 4.62981e-06 2.36502e-05 1.67238e-05 
313 2 21.0257 3.60976 18.6251 -0.419723 -1.42798 0.720359 2.8993e-06 -9.90206e-07 -1.0591e-06 
314 1 45.5733 20.2986 40.8856 -1.44217 0.0277496 -0.654739 3.9213e-05 -1.90894e-05 -4.35661e-06 
315 1 54.276 37.5982 8.44361 1.19094 1.4375 -3.47069 -5.87118e-06 -1.076e-05 -3.46059e-06 
316 1 18.7039 8.88358 30.154 2.42122 -2.85952 0.33135 -1.74155e-06 -4.42751e-06 -2.8354e-06 