ITEM: TIMESTEP
21271
ITEM: NUMBER OF ATOMS
11520
ITEM: BOX BOUNDS pp pp pp
-1.16613 51.3061
-1.21188 53.3189
-1.14257 50.2695
ITEM: ATOMS id type x y z vx vy vz fx fy fz 
1 1 44.1821 14.8389 21.7379 -2.01858 2.16025 0.145218 -3.53259e-06 -1.49355e-06 -6.36154e-06 
2 1 -0.441254 31.7207 48.8346 0.653455 2.90677 -2.79026 -6.35689e-06 7.49636e-06 -1.79123e-06 
3 1 2.14846 25.7041 49.1794 -1.5111 0.159236 -3.68789 -2.16507e-06 -2.95946e-06 -6.31416e-06 
4 2 3.6997 12.86 37.7131 -0.734813 -0.512481 1.77225 -2.05701e-06 -7.53912e-06 -4.42936e-06 
5 2 28.0432 16.0911 28.7018 -1.17701 -0.356046 0.306924 -9.20653e-06 2.08956e-06 1.30811e-05 
6 1 16.4483 14.725 39.9903 -0.0537248 -0.40393 -0.35302 -7.97061e-06 1.12878e-05 -1.77799e-05 
7 1 25.6848 21.4118 47.7095 1.43418 -3.21389 1.36076 1.20217e-05 1.46194e-06 4.39388e-06 
8 1 41.6273 -0.663402 2.66173 4.78547 -2.20938 -2.4082 3.762e-05 2.76746e-07 6.93426e-06 
9 2 32.0654 3.79296 22.6238 0.249304 -0.865592 1.39681 1.21017e-05 1.74735e-05 1.00519e-05 
10 1 11.0638 29.0452 28.3665 -0.312446 -4.98881 1.17734 1.71943e-05 -2.35569e-06 6.71357e-06 
11 1 14.939 5.46803 26.9202 1.73371 -2.34441 1.24376 3.22788e-05 -0.000115939 1.02602e-05 
12 2 20.3044 43.4593 22.4169 -1.19095 -1.88876 -1.40502 -9.59174e-06 4.63986e-05 1.33608e-05 
13 1 37.2175 6.34078 43.0487 2.84268 -1.13151 -0.384596 2.52412e-05 3.50493e-05 -3.43166e-06 
14 1 19.1091 10.7431 5.48673 0.702055 -0.925261 -0.56602 2.06637e-06 1.53683e-05 -1.13162e-05 
15 1 16.574 50.8751 49.0906 -3.87521 1.61565 0.457076 -2.92616e-06 6.81976e-06 1.91338e-06 
16 1 44.01 8.83832 43.8163 0.844835 2.27202 0.149544 -2.58427e-05 -1.74608e-05 5.44181e-06 
17 1 34.5294 51.7583 23.745 1.858 -3.49564 0.486487 7.43926e-06 -3.13163e-06 2.04368e-06 
18 1 17.1156 25.7722 49.4579 -1.80847 -2.23525 -3.7178 -2.24816e-07 3.39499e-06 -6.88387e-06 
19 1 19.4981 39.8608 20.6396 -2.75289 -2.00838 -0.327392 -0.000128537 8.54826e-06 -2.73294e-05 
20 1 23.176 2.39692 40.8539 0.733124 -0.88964 -2.84979 -2.12491e-05 -1.39041e-05 1.76796e-06 
21 1 16.4993 24.947 47.2665 0.144451 2.71244 -2.5615 -5.19666e-06 5.59255e-06 -8.12027e-06 
22 1 10.1892 45.1439 31.0565 -4.78639 1.96913 -0.471473 1.60643e-05 -8.67389e-06 -1.94943e-05 
23 1 24.2734 20.0733 13.9927 -1.21746 -1.01137 -4.22408 1.38268e-06 7.65733e-06 8.36529e-06 
24 1 18.4197 50.7974 25.6933 -3.19855 0.056173 1.19581 2.47591e-05 6.1846e-06 2.7877e-05 
25 1 1.57067 8.76663 13.4854 3.92332 0.693467 2.09388 -3.78362e-06 -1.26996e-05 -3.18811e-06 
26 1 22.7401 13.3949 13.8014 1.02289 -1.35818 -3.59191 1.87207e-06 1.52467e-05 -3.67105e-06 
27 1 0.163477 22.1429 9.87864 2.20897 1.19065 -0.125152 4.20722e-06 1.15769e-06 -1.12689e-05 
28 1 25.6861 16.7611 38.338 -2.45943 0.287039 -5.69311 -1.0278e-05 6.19419e-06 7.50919e-06 
29 1 21.6051 48.0811 27.3581 -1.43543 0.508902 -1.64749 -1.17329e-06 1.94863e-05 -7.64958e-06 
30 1 16.35 18.85 -0.859812 -3.53257 -0.972273 -2.0541 -8.62441e-07 1.06377e-06 -1.03474e-05 
31 1 20.6321 37.0799 38.2852 1.68188 0.541905 1.96098 -5.67936e-06 1.95252e-06 1.48537e-05 
32 2 19.74 7.44126 22.7916 2.05759 1.04053 0.945506 -2.95733e-06 -4.72638e-06 -9.95109e-06 
33 1 14.2917 0.938284 24.4565 2.02405 2.92269 -1.06076 2.67875e-05 -2.80149e-05 -4.30786e-05 
34 1 42.592 13.3013 13.2449 4.60481 -0.284518 -0.39998 3.01756e-05 -3.39021e-07 -1.51696e-05 
35 1 29.1387 44.1967 4.57667 1.61492 -1.31913 -2.76688 2.56382e-05 -6.35596e-06 8.64306e-07 
36 1 2.24742 23.9889 25.5084 1.23402 0.47546 0.600959 -1.40453e-06 -7.03806e-07 -1.49286e-05 
37 1 0.0430914 32.9161 30.0105 0.276468 0.58007 1.34107 6.48814e-06 4.93262e-06 -8.46927e-06 
38 2 5.06948 34.8271 40.0492 1.05146 -0.233642 1.62859 -7.69508e-07 -1.00202e-06 -5.77315e-07 
39 1 9.07539 16.8392 3.6198 -0.75419 -0.910524 1.52048 -9.43561e-07 1.7228e-05 -7.5409e-06 
40 1 28.7711 32.574 31.1214 0.540008 -2.89137 -0.917384 -2.60004e-06 1.04334e-06 5.5867e-07 
41 1 42.8027 41.5934 2.58918 3.03076 2.86032 1.8076 -1.28949e-05 -2.30627e-05 2.50092e-06 
42 1 14.5469 48.3348 0.361583 -0.873351 0.458796 3.27288 2.06313e-05 -4.01915e-06 7.12049e-06 
43 2 11.4778 43.9644 23.3841 -0.379816 1.04483 -0.395552 -2.985e-05 2.21185e-05 4.03027e-05 
44 1 22.3099 30.8104 39.5306 -0.291779 -5.93955 -2.3886 -1.38725e-07 -2.30114e-06 -1.22268e-05 
45 1 15.5613 23.8833 33.9924 2.43297 1.77611 0.235767 -7.88506e-07 8.11868e-06 -1.90611e-06 
46 1 49.8873 47.5268 10.9092 0.780901 -1.03533 -3.14287 1.27278e-05 -1.16879e-06 6.58598e-06 
47 2 20.9599 37.5677 10.5128 -1.31766 0.54681 0.420015 -9.10977e-07 -1.4731e-05 -2.0411e-05 
48 2 44.3227 2.47361 24.8299 2.36879 2.12229 1.10225 -8.34686e-06 -3.24654e-06 0.000184689 
49 1 33.7735 40.2001 3.90487 -2.12037 -1.75521 0.320236 -3.7006e-05 2.06431e-06 2.23881e-05 
50 1 19.3169 44.9261 36.1593 -2.08101 -0.709027 3.50179 1.53505e-05 1.42561e-05 -3.88034e-05 
51 1 14.5899 40.2167 12.9555 0.400391 1.30561 3.79193 2.05366e-05 0.000100818 -1.66349e-05 
52 1 46.2034 51.0502 34.7961 1.78205 1.44556 3.34319 -4.40984e-06 -1.00084e-06 -1.67015e-06 
53 1 14.2558 32.2735 39.102 0.0413495 -0.794744 5.59941 -5.69792e-06 9.41527e-06 1.76736e-06 
54 1 49.5241 27.2531 36.646 2.7215 -0.771753 0.660666 7.08157e-06 -6.93829e-06 5.25081e-06 
55 1 20.3714 11.6166 1.43831 1.473 0.421896 -0.46426 -4.38093e-06 8.52586e-06 -6.94794e-07 
56 1 10.4896 41.076 29.0513 1.27017 -1.11682 3.13746 1.0721e-05 -2.314e-05 -5.00691e-05 
57 1 5.93364 4.27033 7.36169 -0.831363 2.25354 5.15415 9.50267e-07 -1.2074e-05 1.75434e-05 
58 1 33.2826 23.9084 16.3515 1.42616 -2.28921 -1.72523 1.71993e-05 -3.77855e-06 7.08044e-06 
59 1 -0.0799662 14.8088 14.8502 -3.20415 -1.27307 2.39553 9.47541e-06 -1.63006e-06 -2.46829e-06 
60 1 5.91981 33.1375 9.16999 2.13911 -2.38989 -0.272869 -2.7808e-06 1.72682e-06 -1.54158e-05 
61 2 27.7421 17.5013 6.91125 -1.19389 0.227387 -0.991569 9.63286e-06 2.31592e-06 6.46214e-06 
62 1 4.38921 41.1585 31.4738 -0.632969 1.84954 3.50022 1.44301e-05 4.96799e-06 2.89431e-05 
63 1 17.5829 31.3241 29.0846 5.74453 2.55847 -0.443552 -3.01775e-06 2.53149e-05 1.07865e-05 
64 2 24.5475 51.9464 34.2872 -0.0513437 1.06288 0.273553 3.76963e-08 2.69572e-05 3.38709e-06 
65 1 21.3187 4.54824 7.66194 1.65132 2.85374 2.37071 -1.41942e-05 -3.46652e-05 -1.03934e-06 
66 1 9.45399 23.7368 16.5743 -0.787222 0.450498 1.19314 5.42623e-06 2.76022e-06 -6.40478e-06 
67 1 4.75773 25.7117 2.19775 2.06014 2.33014 5.0946 -2.24329e-06 -7.05996e-06 -1.80228e-06 
68 1 14.0873 18.5469 38.2895 -0.478468 0.641031 0.223991 -1.386e-06 8.51813e-06 -1.71227e-05 
69 1 6.74177 37.3994 33.7139 -0.313256 1.87543 0.828887 -3.86111e-06 -2.39363e-06 3.73161e-06 
70 2 16.0502 44.7189 24.1228 -1.25361 0.356263 -1.12027 1.10254e-05 2.24398e-05 2.79921e-05 
71 1 45.9919 16.0497 6.58078 2.3112 -0.864495 2.46971 8.77275e-06 -2.40842e-05 7.1764e-06 
72 1 26.373 44.5209 24.826 -5.06915 -0.258605 -2.22477 -1.12385e-05 -1.98578e-05 -6.60217e-06 
73 1 17.6187 -0.709386 46.0565 -1.80714 1.90366 -2.53303 -1.56595e-05 -7.0426e-06 6.19584e-06 
74 1 0.116561 32.5577 33.4884 2.13874 -0.591615 -0.860243 -8.78751e-06 1.06578e-05 -2.17113e-06 
75 1 3.37055 31.0408 18.8397 -0.705099 1.10779 0.419412 -8.98304e-06 2.84469e-05 -8.35051e-06 
76 1 25.4005 51.7635 49.9457 0.57912 0.261105 -0.376166 -1.41004e-05 -3.45805e-06 2.23461e-05 
77 2 51.2193 33.5499 27.8306 0.311657 1.82411 -0.303902 7.69647e-06 -6.1617e-06 -1.06924e-05 
78 1 3.90216 31.9387 48.8978 -0.728539 -1.61988 1.1948 -1.63468e-05 -6.19871e-06 -1.51276e-05 
79 2 47.7999 9.61977 19.2055 -0.453785 -0.617611 -0.282436 2.20266e-05 -4.47349e-06 -1.68311e-06 
80 2 8.02131 46.9779 17.9551 1.32536 0.598963 -2.21684 2.16582e-05 -1.47986e-05 -1.8182e-05 
81 1 34.1702 46.8832 50.1636 -2.77858 -2.50512 -0.546843 -7.28283e-05 -2.657e-05 1.44185e-05 
82 1 42.6569 -0.724924 8.79557 4.95704 0.278869 0.27669 -9.00648e-06 9.93739e-06 -1.7267e-05 
83 2 49.6552 39.299 6.23334 2.6978 -0.304676 0.929035 -8.11881e-06 -4.52097e-06 -2.23265e-06 
84 1 4.37604 21.7029 44.3481 -0.674444 2.31454 -1.36365 -4.65953e-07 -3.09106e-06 -1.30574e-06 
85 1 11.6409 42.0827 27.2533 2.01289 2.65894 0.464024 2.46737e-05 5.59295e-05 -8.59409e-06 
86 1 22.7711 39.5073 6.78368 1.1987 -1.57377 -1.49164 6.88058e-06 8.67345e-06 -9.39704e-06 
87 1 35.0076 17.7303 46.9964 1.70261 -0.574616 -2.81711 -1.5198e-05 -1.17545e-05 1.55025e-05 
88 1 13.5103 40.1198 43.6624 -0.626146 -2.32118 -1.91544 -1.18859e-05 7.55167e-06 -3.26886e-06 
89 2 25.2092 12.8423 14.6056 -0.0119192 0.213276 1.0219 -3.24821e-06 5.86069e-06 -5.04705e-06 
90 1 6.82703 9.39591 8.41039 1.16264 0.590146 2.72628 1.10595e-05 -1.10265e-05 1.36391e-05 
91 2 31.0473 21.8607 12.718 -1.0121 0.624145 -1.89979 -6.24179e-07 2.71834e-06 -6.26992e-07 
92 1 45.5695 4.56492 8.06314 0.493019 0.777492 0.357608 -7.0204e-06 2.28252e-05 2.55857e-06 
93 1 41.6013 40.7038 40.6376 -1.93515 3.78599 0.128657 -1.15985e-05 3.86827e-06 3.56538e-06 
94 1 25.9082 41.1537 14.1384 0.450899 3.64549 1.08202 1.34666e-05 4.4076e-05 1.43319e-05 
95 1 38.066 45.6196 -0.835292 2.78002 -0.339732 -1.50172 -3.52746e-05 -3.99856e-06 2.42818e-05 
96 1 42.0199 5.22901 42.8123 -0.898306 1.11142 -2.39825 4.55923e-05 9.23819e-06 -1.47293e-05 
97 1 41.2803 -0.454787 5.11755 0.611335 2.79756 -1.99367 3.04687e-06 1.14439e-05 1.21485e-05 
98 1 11.1943 1.69492 15.6518 -1.04909 -2.11139 -1.11357 6.43417e-06 3.36984e-06 -3.22642e-05 
99 2 8.42921 32.2481 14.6236 -0.51734 -1.02962 0.229563 -4.04841e-05 1.94248e-06 -1.79338e-05 
100 1 39.7267 44.5619 43.9079 -2.00582 1.99127 -2.05154 -6.68995e-06 -9.93989e-07 -1.13111e-05 
101 1 25.9842 7.70958 36.1842 -0.209697 -2.84205 -0.0113181 -4.16411e-06 1.97747e-05 -1.59785e-05 
102 2 22.1042 30.5493 14.7587 -0.0714692 -0.380237 0.935251 -6.22947e-06 -1.19149e-05 -3.57529e-06 
103 1 23.9304 34.0227 8.84892 0.0914797 1.151 1.49116 -1.4538e-05 -2.10342e-05 -2.82814e-05 
104 1 16.9277 -0.64792 1.26904 2.79118 0.754148 -2.23932 1.94797e-05 1.32912e-05 -6.28051e-06 
105 2 30.914 37.4752 33.2819 -0.255382 -0.149271 -0.285081 1.01809e-05 -9.06107e-06 7.23948e-06 
106 1 10.8449 12.5929 46.3334 -1.83466 -2.97289 1.47728 1.83939e-06 -2.54432e-06 8.81009e-06 
107 1 32.5871 22.0254 14.9791 -6.20335 -0.882447 -0.472896 8.83501e-07 2.03926e-06 1.09966e-05 
108 1 33.8777 8.51144 11.3245 2.05024 -0.59657 -0.625925 1.86428e-05 1.24202e-05 8.09447e-06 
109 1 3.05262 40.2464 46.389 -1.38908 -0.133371 -0.871558 -2.13704e-05 5.85663e-06 -1.26759e-06 
110 1 20.0979 21.549 16.7331 1.73048 -0.686096 -2.65899 -2.99003e-05 7.37982e-08 2.00484e-06 
111 1 22.8276 9.5924 7.09927 1.26698 -0.00273088 -0.783829 -2.00531e-05 8.44836e-06 3.05802e-06 
112 1 2.2669 51.6323 42.3272 0.390114 -0.990517 0.450575 -8.81296e-06 1.94548e-06 1.23933e-05 
113 1 9.59272 3.16524 13.5412 -1.5183 2.0778 -5.02603 4.52073e-06 -1.42893e-05 -1.36328e-05 
114 1 5.39963 46.4029 14.2783 -3.12157 -2.79962 1.7293 1.02062e-05 1.87469e-05 -2.33204e-05 
115 1 20.7765 46.0944 22.1954 0.16026 0.228339 -0.774872 4.33295e-06 -1.14117e-06 3.51177e-05 
116 1 12.4459 47.6069 19.6962 2.00529 -2.37668 2.03911 4.8157e-06 -4.56508e-05 2.49447e-06 
117 1 45.4976 12.7585 15.3744 0.206724 -0.37808 1.32488 2.237e-05 -7.88422e-06 -2.47203e-06 
118 2 3.8687 42.2676 13.8064 0.591084 1.37831 0.180419 -5.27514e-06 -2.78378e-05 -1.78778e-05 
119 1 6.43386 29.1717 17.1666 -2.84763 0.918361 -1.09318 -1.98663e-05 2.28333e-05 1.91343e-06 
120 1 5.66841 2.76279 37.4385 -2.77951 -1.61036 0.559215 6.10526e-07 9.91342e-06 8.45601e-06 
121 1 42.3509 4.80512 35.552 -0.34047 -0.424916 3.18199 -9.97344e-08 2.50823e-06 4.44068e-07 
122 1 -0.164852 37.6822 5.36396 0.927027 0.839797 -3.84953 -4.85438e-06 -5.31906e-06 -5.84351e-06 
123 2 2.01843 23.1785 39.6979 -1.31785 -0.264456 1.21487 -6.49547e-06 -3.45308e-05 -2.48249e-06 
124 1 22.348 46.0699 44.1549 1.40937 1.45425 -0.605092 -9.15258e-06 2.88287e-06 2.61473e-05 
125 2 40.4347 15.7503 3.56549 -0.916524 0.707789 0.786986 1.58752e-05 -7.98103e-06 1.89223e-05 
126 1 40.506 37.225 3.84313 0.139559 0.56224 1.31675 -8.22352e-06 5.31435e-06 -1.20307e-05 
127 1 10.0282 6.52428 17.9924 2.60567 1.40233 -3.73876 3.07695e-06 1.97883e-05 -1.57931e-05 
128 1 0.13258 2.11562 50.1038 0.440309 -1.78233 -1.1002 -2.87458e-06 -5.78499e-06 1.32901e-05 
129 1 12.4239 12.4526 13.8258 -1.16311 -0.140786 -0.185685 2.28733e-05 2.74994e-06 -1.02449e-05 
130 2 5.70389 41.7243 33.8539 -1.329 -0.663163 -0.606163 -7.99229e-06 -1.31361e-05 1.66504e-05 
131 1 0.90556 51.2752 26.2221 -2.55669 -0.656021 -1.09762 -1.86682e-06 3.17975e-06 1.07189e-05 
132 1 32.1112 37.7885 0.0864589 1.15052 1.57351 -1.0145 -8.19195e-06 -1.12711e-05 1.54176e-05 
133 1 29.5072 15.4832 22.6506 -0.812764 -0.0598537 0.216896 -3.72893e-07 3.20497e-07 2.42821e-06 
134 2 10.654 22.6384 34.8176 0.568263 0.822975 -1.05564 -1.62603e-06 -2.69096e-06 6.17681e-06 
135 1 32.3575 22.901 6.34138 2.04185 -1.32966 0.0185638 5.00103e-06 -9.75734e-06 -5.73066e-06 
136 1 29.4028 35.998 12.0231 -0.949114 -1.66325 -4.3601 4.3333e-06 9.90656e-07 -2.61835e-05 
137 2 46.6293 -1.08527 34.058 -1.74776 -0.496522 0.637394 4.42568e-06 -7.31529e-07 2.27536e-06 
138 1 4.19886 48.2138 15.5286 -1.97896 1.74227 0.922967 3.90201e-06 1.02771e-05 -3.87848e-06 
139 1 12.2089 42.1159 5.00716 -0.892698 2.02342 2.54639 -1.80754e-05 -1.3213e-06 -1.41411e-05 
140 2 5.52926 40.0452 12.7124 -0.299299 1.02804 0.448873 -1.525e-05 1.04047e-06 -7.41657e-07 
141 1 44.8896 26.8862 10.7941 -1.94202 -1.7559 -1.3013 2.71201e-06 8.35041e-06 -2.25075e-06 
142 2 33.0241 32.6468 32.2845 -1.57177 -0.676703 1.14188 4.98801e-07 -6.82233e-06 4.49813e-06 
143 1 21.9129 39.5402 15.0109 -3.50567 -1.08457 0.0304718 3.73055e-05 4.64483e-05 -9.33176e-06 
144 2 16.4749 31.5686 -0.335149 -0.582241 0.00942527 0.921628 5.10335e-06 -1.51854e-06 3.37883e-06 
145 1 38.4836 31.9085 26.7562 -2.36843 0.4721 2.25829 1.27813e-06 -4.18016e-06 -7.43832e-07 
146 1 20.727 43.5598 48.5822 -1.29777 3.00027 -2.90738 -7.5585e-07 3.24623e-06 -4.98511e-08 
147 2 38.942 8.43952 21.2508 1.26619 0.583555 -0.412329 -1.04416e-05 -3.85987e-06 -4.67403e-06 
148 1 25.2114 25.7985 37.8068 -0.677687 -2.11489 4.882 -4.67153e-06 -5.17006e-06 -6.44131e-06 
149 1 21.6257 9.4504 41.9166 0.274904 2.43307 -0.0864018 8.29263e-06 1.84005e-05 1.90777e-06 
150 1 35.5612 7.31106 28.1736 -0.25568 -0.533382 1.47363 1.33407e-05 -1.48266e-06 4.22963e-06 
151 1 1.35813 13.5122 9.13376 3.23742 -0.417963 -1.77805 4.68106e-06 -9.42965e-06 9.71678e-06 
152 1 1.43454 51.1122 15.2527 4.93139 0.253406 0.94728 1.92063e-05 -6.78543e-06 -9.64531e-06 
153 1 44.4134 25.8686 28.7655 1.45551 2.83254 2.76448 -3.51456e-06 1.15432e-06 -7.01198e-06 
154 2 1.68646 36.6108 49.3147 -2.07662 0.192837 -0.308159 -7.2028e-06 4.88339e-06 -1.23571e-06 
155 1 36.1359 18.661 15.8477 -0.310883 1.88464 0.283426 -2.13475e-06 4.83153e-06 1.24585e-05 
156 1 18.1141 41.1876 26.0024 -1.92708 2.15822 1.94549 2.04893e-05 1.70981e-06 6.90365e-06 
157 1 33.1692 14.3445 45.7717 0.103054 -0.574352 -2.01112 5.39166e-06 -1.5981e-06 1.25904e-06 
158 1 -1.04557 32.6645 3.18866 0.0273196 0.956106 2.28912 -1.27051e-06 -5.91241e-06 5.0596e-06 
159 2 9.57426 6.86932 20.7794 -0.0208954 -0.283972 -1.48457 1.73656e-05 -9.92269e-06 -8.78415e-06 
160 1 27.0919 25.6977 36.2479 2.31037 1.97874 -2.529 5.06463e-06 -6.00389e-06 -7.4837e-06 
161 2 9.25872 45.9363 43.311 2.94904 1.04483 0.286507 -7.41194e-06 -6.16975e-06 8.02141e-06 
162 1 20.0832 28.1728 32.1392 1.13249 -1.29859 0.954548 2.61802e-05 7.87514e-06 4.03636e-06 
163 1 13.0965 15.8025 -0.300766 2.77641 1.41959 1.42285 5.31006e-06 7.57689e-06 4.92025e-06 
164 1 15.1636 2.74157 31.0361 1.83842 -1.90636 -1.16208 5.59555e-05 -6.592e-05 0.000114843 
165 1 18.5518 50.2713 47.3502 2.15825 -0.00565795 1.2132 2.00027e-07 -2.17971e-05 -1.88019e-05 
166 1 24.2909 31.5908 7.17124 1.45688 -1.82755 -1.57439 7.55414e-07 1.0254e-05 -6.7099e-06 
167 1 18.0445 17.9238 13.4641 0.742367 -1.6424 -3.4378 2.15124e-07 1.21307e-05 3.43756e-06 
168 1 44.4476 47.4591 22.2603 4.9993 0.71856 2.43901 5.78142e-06 9.44513e-06 7.16016e-07 
169 2 10.7307 10.9051 31.3178 0.392323 -0.293422 -2.10765 2.13492e-05 2.18476e-05 -1.94254e-05 
170 1 5.29506 47.2991 26.6514 -4.24021 1.56494 0.12859 1.50267e-05 -4.80745e-06 1.24602e-05 
171 1 47.1045 15.0764 33.6409 3.46523 0.600253 -3.06221 -3.90755e-06 -1.05628e-05 -2.77386e-06 
172 1 42.8302 16.7746 30.918 -0.284051 2.33894 -2.20548 2.1885e-06 -1.27726e-05 -9.94912e-06 
173 1 40.3726 2.08733 25.0275 0.220322 0.528499 -1.12211 3.24473e-06 8.49569e-08 3.79146e-06 
174 1 21.3379 18.0028 33.428 3.4894 -0.836147 2.90817 4.92382e-06 1.98194e-06 5.28345e-06 
175 1 16.2585 5.20578 42.4039 -0.534629 -1.03889 0.270994 -8.96215e-06 5.19182e-07 1.4078e-05 
176 1 26.1622 20.8116 36.8738 2.20741 1.27319 -1.26894 7.75578e-06 -5.88696e-06 4.90213e-06 
177 1 12.9391 44.3283 27.4913 -1.6439 -0.756225 4.6335 1.76515e-05 -1.46938e-06 1.64686e-05 
178 2 2.8144 50.4795 21.4997 -1.41893 -0.474099 0.358483 -3.04649e-07 -9.57233e-06 2.22282e-07 
179 2 44.1086 29.7222 30.8078 0.0177489 -0.634679 -0.956895 -3.95339e-06 -1.40128e-06 -6.0584e-06 
180 2 9.07221 47.9952 0.990748 -1.87035 -0.116645 0.31336 1.74979e-06 5.22206e-06 -4.00521e-06 
181 2 42.4132 16.1505 16.9406 -0.0869646 1.19634 -2.33528 1.07394e-05 6.36071e-06 7.91266e-06 
182 1 7.95338 14.2368 7.13217 1.69805 -2.05703 -1.99097 -7.15953e-07 -1.42998e-06 1.85014e-05 
183 1 -0.543188 48.3404 17.1846 0.889624 -0.426443 0.0826463 1.86831e-05 1.20011e-05 -1.21753e-06 
184 2 44.8098 25.405 32.9159 -0.482228 -0.996753 -0.89063 -4.04175e-06 -9.47978e-06 -7.8347e-06 
185 1 17.4126 27.0695 41.7029 0.389729 -1.87633 -0.16445 -8.33537e-07 -4.91451e-06 -1.12487e-05 
186 1 5.40966 36.5458 25.1548 3.41378 -1.74305 3.28826 1.25726e-05 1.44192e-05 2.01929e-05 
187 1 21.4014 14.9484 0.197518 2.42008 1.76148 -0.874679 -2.62226e-07 -1.64061e-05 1.08307e-05 
188 1 24.0353 43.6125 29.0172 -1.2655 4.4058 -2.67621 2.50393e-05 1.00501e-05 1.16858e-06 
189 1 19.0174 -1.11626 16.4339 3.77446 -0.468628 2.07004 -2.85763e-05 2.0035e-06 1.9368e-05 
190 2 13.006 44.9346 39.4739 -0.0946724 -0.444079 2.17368 3.80218e-06 9.9357e-06 -3.8678e-06 
191 1 24.5149 42.9924 35.0598 -2.74922 -0.784157 -2.8765 -2.2771e-06 1.1155e-06 9.27297e-06 
192 1 10.1581 2.24788 31.585 -0.935337 4.47732 -0.880658 1.50277e-05 8.56225e-08 -7.8484e-06 
193 1 35.0753 7.81942 34.2131 1.76761 -1.5293 -0.74274 6.73536e-06 -1.2369e-05 1.24965e-05 
194 1 30.6926 41.72 48.24 0.174126 0.285088 5.71323 -1.15014e-06 5.20621e-06 8.53828e-06 
195 1 4.74615 37.763 13.4135 1.4032 2.36258 2.28322 -2.12935e-05 -1.29551e-06 -2.61984e-05 
196 1 3.16555 1.94291 36.814 0.138247 -0.98947 2.79557 1.42201e-05 -6.21051e-06 -2.61373e-07 
197 2 24.4275 15.4051 13.587 -0.750054 -0.573939 -0.878956 -9.92047e-07 1.75924e-05 -1.3019e-06 
198 2 51.186 28.6092 29.8024 -0.451671 -0.530642 -0.425709 9.08499e-06 1.15187e-05 -7.30582e-06 
199 1 9.74584 50.5417 26.5353 -2.02849 2.14863 -2.54821 2.83992e-05 -6.23984e-05 -8.99068e-07 
200 1 37.0193 42.8049 40.564 -0.425828 -3.39916 3.9954 1.12549e-05 5.67902e-06 2.42531e-06 
201 1 27.601 15.5234 10.785 -0.641411 2.1323 3.17802 -2.04646e-06 5.99352e-06 6.15562e-06 
202 1 43.1559 49.358 15.8594 -0.926103 0.413754 1.62203 1.58342e-06 -5.99794e-06 -3.27775e-07 
203 2 28.776 22.5231 14.5815 2.27799 1.24762 -0.651719 7.56536e-06 -9.64168e-07 3.28211e-06 
204 1 3.7425 38.7415 31.2193 -0.663229 -4.08298 2.23001 2.50361e-06 1.6743e-06 7.66052e-07 
205 2 6.74747 30.8153 45.4627 0.875895 1.58542 -2.12439 -9.88381e-06 -9.16654e-06 -1.20299e-05 
206 2 28.3474 7.79139 1.84692 0.270376 -0.123852 -2.29817 -3.43143e-05 -2.84879e-05 7.74242e-06 
207 1 10.0389 27.6031 46.8168 -0.468793 0.319887 -0.81532 -1.09175e-05 5.23361e-06 -6.07123e-06 
208 1 5.41307 40.3027 29.6583 -0.065626 -2.90269 -2.66232 -1.48416e-06 3.86608e-06 4.85816e-06 
209 2 11.7072 36.6862 46.2442 -1.35798 -2.902 -0.234834 -4.54534e-06 -4.14211e-06 -1.83042e-05 
210 1 23.8004 49.1963 12.561 1.05356 -1.59086 2.2463 4.82743e-05 -2.57442e-05 -1.15726e-05 
211 1 14.344 28.3352 47.8905 0.306121 -2.96827 -2.63895 -6.24858e-06 3.81351e-06 -1.39693e-05 
212 1 37.8901 9.51876 18.6022 -0.0170126 3.60192 1.43056 -2.71045e-06 6.82721e-06 -3.53264e-06 
213 1 17.0098 12.9096 31.3795 2.606 1.69641 1.18563 1.99563e-05 1.95435e-06 -2.22346e-05 
214 1 16.9297 14.8536 19.5749 -1.10667 0.738886 -1.72327 7.71767e-06 5.64186e-06 2.47525e-06 
215 2 3.57772 45.1717 12.7943 0.338107 -0.415312 -0.0993394 -5.55331e-06 -8.70851e-06 -5.82429e-06 
216 2 43.9531 26.001 15.913 -1.03722 -0.29246 1.55565 6.93755e-06 -5.16572e-07 -1.01806e-06 
217 1 0.265636 14.5277 21.7098 1.31117 0.281172 1.5423 1.08282e-05 -1.20712e-05 -2.88372e-06 
218 1 42.7487 27.8507 14.3491 -1.97755 0.0497114 -2.74823 1.35437e-05 6.53744e-06 3.38527e-06 
219 1 25.9935 19.8257 23.7804 -1.95563 2.91669 4.00531 4.42622e-06 6.55865e-06 -6.72254e-06 
220 1 1.40328 24.3303 -0.395091 1.73755 -1.45737 -1.83479 -4.96183e-06 -4.14639e-06 -5.97663e-06 
221 1 30.512 18.8405 37.9496 -3.42503 -0.258352 -2.1186 4.69051e-06 -1.7019e-06 8.35728e-07 
222 1 6.56797 42.1643 12.0559 2.72231 -0.606693 -0.137286 -2.84186e-05 -4.59028e-06 -1.5134e-05 
223 2 12.3696 26.4305 46.0438 -1.36001 -0.243388 0.460452 -7.41469e-06 9.23105e-07 -9.81707e-06 
224 1 37.1355 1.12507 41.8013 -1.48373 0.731363 -0.688265 -3.18591e-05 -6.5197e-06 -4.47852e-05 
225 2 43.8197 6.26846 30.5178 1.25303 0.369596 -0.415314 -4.76314e-07 -1.02574e-05 -2.36768e-06 
226 1 41.5797 41.734 47.5741 0.63401 0.285189 0.954347 -1.16737e-05 -1.61852e-05 -3.46663e-06 
227 1 19.0844 26.7114 21.1892 0.0392706 -2.62528 -0.324858 -1.02958e-05 9.52637e-06 -3.22911e-05 
228 1 33.6957 46.9166 38.6615 -2.19932 0.770529 3.72057 1.25107e-05 -3.29616e-06 1.24015e-05 
229 1 49.3496 18.7781 28.105 0.3823 -2.44753 1.44825 -3.19039e-06 -2.51939e-06 1.59909e-06 
230 1 18.9971 16.4943 2.27808 -0.621711 -0.899187 2.60956 3.91581e-06 4.51118e-06 3.91282e-06 
231 1 15.8829 6.4236 1.9991 0.821813 0.759051 1.24094 -1.1024e-05 -2.29145e-05 -1.08371e-05 
232 2 18.6683 47.705 21.8907 -0.00737381 0.258768 -0.549643 2.03371e-05 -6.71146e-06 -1.16413e-05 
233 1 8.85282 29.0472 17.7546 -0.326128 -0.914733 3.34024 -1.43174e-05 1.40551e-05 -5.41146e-06 
234 1 2.01176 -0.541347 9.46126 -0.0599175 -0.0948943 1.4598 1.33695e-05 -6.46976e-06 -3.32479e-06 
235 1 41.9743 3.54153 21.343 4.58856 -3.03257 -1.27269 5.77337e-05 -5.7638e-05 -1.35818e-05 
236 1 19.2273 41.664 6.96549 -3.67634 -1.23311 1.23115 -3.96782e-05 -2.72016e-05 -3.95506e-05 
237 1 34.5582 28.8601 30.8623 -2.98662 2.2928 -1.34998 2.54898e-06 -6.36529e-06 3.69869e-06 
238 2 17.7925 11.853 42.1041 0.21271 1.8772 -0.533681 1.78223e-05 -2.03603e-05 1.14505e-05 
239 1 30.0393 16.5808 37.5469 2.22818 1.04214 -2.17689 -4.08008e-06 -6.58901e-06 3.23853e-06 
240 2 23.9093 41.1518 15.8912 2.19352 1.09411 -0.00974518 3.0815e-05 3.77485e-05 1.11422e-05 
241 1 19.2006 51.6106 27.8656 -5.40769 2.9402 2.13584 -4.77711e-07 -2.35771e-06 1.13412e-05 
242 2 3.12351 40.2591 33.5334 0.582395 -0.0346822 0.0896234 2.34229e-06 -1.00919e-05 -1.48345e-07 
243 1 28.6378 35.6981 44.0394 -3.6415 -2.30227 -0.016813 -7.51459e-06 -8.82845e-06 -1.29462e-05 
244 1 32.5853 21.599 34.8143 2.23968 -4.5355 -0.0478201 6.2691e-06 -8.89151e-06 4.18392e-06 
245 1 6.51737 11.7969 32.1811 -0.414117 -1.74076 0.301249 2.10561e-06 1.15558e-05 3.90531e-06 
246 1 29.6413 7.16713 18.2747 0.0741386 1.94621 0.639058 -1.91479e-05 2.26995e-05 -1.8763e-08 
247 2 24.1063 34.8111 38.2893 1.33605 -0.315008 1.21627 1.02167e-06 -7.103e-06 7.65207e-06 
248 2 21.3217 34.9426 9.29763 0.385721 0.614117 0.975115 1.69558e-05 -2.35972e-05 -2.34792e-05 
249 2 5.99085 1.48544 11.9423 -0.129602 -0.143582 -1.95269 1.57385e-05 -4.38643e-07 1.16073e-05 
250 1 25.4903 49.9344 0.198949 -0.324005 -1.31254 -3.19649 -2.80505e-05 -1.06044e-05 -4.71339e-06 
251 1 14.0726 27.0066 19.1402 -1.8978 -0.529757 0.280212 -1.30728e-06 9.15493e-06 2.84434e-06 
252 1 23.6953 19.4959 22.5956 1.57344 5.81468 -2.5257 5.07844e-06 2.26607e-05 1.83501e-06 
253 1 42.5998 12.7668 21.8201 -3.68676 3.73983 -1.87513 2.91306e-06 -5.68257e-06 2.28282e-06 
254 1 25.5047 28.5787 13.1768 -0.0634774 -0.0881132 1.17371 -9.09682e-06 -1.22469e-05 -1.45761e-05 
255 1 15.6152 42.4073 0.211527 0.883097 1.22374 3.19721 6.89086e-06 1.49996e-06 -1.14753e-06 
256 1 19.3224 14.5138 19.0043 -1.25804 1.11851 0.430667 4.36513e-06 1.60285e-05 2.38267e-06 
257 1 12.9347 40.1669 28.5572 -0.686324 -2.50988 2.80938 2.01371e-05 -2.94876e-07 5.05094e-06 
258 1 9.98279 46.6476 6.00534 -0.462299 1.73844 2.25518 -9.64668e-06 -3.4514e-06 -2.69677e-05 
259 1 9.26394 42.9031 39.4859 -1.77066 -3.82835 -1.49484 -2.99647e-07 3.20532e-06 -1.5007e-08 
260 1 13.9042 40.0955 4.35518 2.18772 -1.29561 -0.279332 -2.84756e-06 -1.66727e-05 -1.31563e-05 
261 1 35.1562 26.3424 10.6646 -2.68909 0.0269016 3.14263 -8.33376e-07 8.47386e-06 -3.57449e-06 
262 1 8.96565 47.0979 34.6905 0.375247 -1.23524 -0.970459 2.26467e-05 5.5012e-06 1.90227e-05 
263 1 16.2176 13.9287 42.1849 1.05821 -2.43192 3.69021 -1.08305e-05 2.07248e-06 -3.80999e-06 
264 1 42.9091 8.68221 30.6098 2.50688 -1.88619 -1.43622 3.72234e-06 -2.29794e-06 6.3218e-07 
265 1 47.3181 41.0101 14.3841 -2.73755 -2.5894 -1.47013 1.83324e-05 1.32082e-05 -2.24496e-06 
266 1 -0.735081 10.0131 9.35838 0.336571 -0.890313 -3.38846 6.10049e-06 -6.89583e-06 4.09558e-06 
267 2 42.4197 45.3029 31.1515 -1.06363 0.978107 -0.472392 -7.01997e-06 2.69214e-06 1.53325e-05 
268 1 16.0765 10.0126 35.8572 0.154301 3.37849 -0.421234 -4.02778e-06 6.48326e-06 1.67164e-05 
269 1 10.4709 4.49017 34.5489 -0.666649 -0.838785 1.47318 -1.13742e-05 5.73179e-05 -2.18934e-05 
270 1 47.909 1.86513 9.86688 0.102192 -2.27772 -1.30599 8.05233e-06 -3.96501e-06 9.56984e-06 
271 2 20.088 20.9573 43.5658 0.104491 0.460478 -0.636278 4.45216e-06 -1.12894e-05 -1.2571e-05 
272 1 9.95905 3.00657 -0.91362 -1.47121 0.723868 -0.455432 -6.76368e-06 4.81956e-06 -1.25106e-06 
273 1 0.386322 20.2791 18.2097 -1.07683 -0.442145 -4.46695 1.1648e-05 -3.14223e-06 4.13752e-06 
274 1 16.8827 43.7716 11.8865 4.99784 2.7384 -2.57921 -2.15824e-05 -5.7524e-05 7.45698e-05 
275 2 9.61126 23.1894 40.4505 0.704197 1.58474 -0.825906 -1.4206e-06 -6.50208e-06 -5.54777e-06 
276 1 24.0003 4.07619 29.8091 2.27723 -0.776179 1.56152 1.2184e-05 7.81053e-07 2.34714e-05 
277 2 8.03438 33.3076 2.33084 1.44847 -1.00155 1.60013 -2.04455e-07 7.92451e-07 -4.42211e-06 
278 1 13.54 18.3088 43.1694 -0.221682 -1.86157 -2.39569 -6.18459e-06 -6.21775e-06 -5.31006e-07 
279 1 8.22616 41.7414 25.4226 -4.47096 0.110554 -2.16365 -1.79958e-05 -2.68457e-05 -1.68129e-06 
280 1 36.9589 18.2646 3.73223 -0.808891 0.404225 1.76461 1.89348e-06 -4.00402e-06 6.98472e-06 
281 2 46.2958 1.79862 47.5062 2.02496 -0.42054 -0.538055 -1.00292e-05 -2.41932e-06 1.45172e-05 
282 2 16.3522 14.7757 35.4698 0.870729 -0.837281 0.204964 -2.00257e-06 1.40829e-05 4.85343e-07 
283 1 33.4893 20.9805 45.9834 -0.752564 1.6153 1.05511 4.05429e-06 1.71634e-07 -4.17573e-06 
284 1 37.5468 2.78932 28.0904 -1.20426 -0.255112 -0.0158344 1.28592e-05 -5.90057e-06 -6.30207e-06 
285 1 16.9545 2.39559 32.6748 1.11449 1.19336 -0.641387 -5.76295e-07 -3.39804e-05 -2.74779e-05 
286 1 3.94467 12.202 44.4619 -1.28938 -2.80374 -0.700894 5.07874e-06 -3.03682e-07 -2.00766e-07 
287 1 2.22624 34.9525 22.1091 -1.26389 2.50949 -1.16023 -5.42591e-06 2.30713e-05 2.08738e-05 
288 1 33.2551 5.49731 37.6188 5.93007 1.56462 -0.716443 4.97125e-06 -1.83596e-06 8.07232e-06 
289 1 49.511 36.6527 6.86528 -0.717224 0.437877 1.40889 -5.36014e-06 1.20226e-05 -1.10204e-06 
290 2 27.0137 41.0874 19.3817 0.0956047 -0.814049 -1.04633 2.54984e-05 6.06008e-06 -1.26304e-05 
291 2 39.1385 19.3069 48.8907 -2.52548 1.35043 -2.74623 8.0302e-07 2.96934e-06 4.09621e-06 
292 1 10.9843 -0.517072 40.1641 0.871965 -0.547192 -0.179966 1.89072e-05 1.83152e-05 1.38381e-05 
293 1 49.7264 -0.564008 45.9188 0.434496 0.318963 2.4317 8.59043e-07 2.37985e-06 1.40429e-06 
294 1 0.836934 32.9548 22.013 -2.02841 2.24367 -1.49224 -1.29958e-05 8.9502e-06 3.30355e-06 
295 1 20.0137 36.2735 46.0522 0.96615 -0.164758 3.96933 4.19013e-06 -1.2493e-05 -8.98977e-06 
296 1 4.75949 11.8838 0.912232 0.0699276 0.479579 0.173941 5.46023e-06 -8.09097e-06 4.09605e-06 
297 1 37.868 31.618 6.70066 1.63109 0.555393 -0.701944 1.15643e-05 8.09678e-06 4.42088e-06 
298 1 19.6107 36.3499 20.1813 -5.1281 2.33133 -1.97594 -4.79717e-05 4.81394e-05 -9.11953e-05 
299 1 26.0567 43.0577 15.9923 0.385775 2.58957 0.713233 -1.17953e-05 2.63153e-05 5.88249e-05 
300 1 7.18221 39.5462 14.5292 1.34169 0.336327 3.20742 2.41667e-05 4.26407e-06 2.81516e-05 
301 1 3.90649 9.76071 43.986 5.07405 -0.950727 2.4367 3.27708e-07 -5.08146e-07 -1.43846e-05 
302 1 -0.879109 51.5925 45.8119 1.78551 4.03907 -0.372468 -4.85438e-06 -6.01595e-06 -9.14945e-07 
303 1 34.7886 48.4427 31.5183 -0.568504 -1.8595 -3.29824 -8.50135e-06 4.1902e-05 -4.62058e-05 
304 1 31.5478 39.9685 33.0445 -4.01847 2.89758 1.41458 -6.12204e-07 -5.90065e-06 -9.67518e-06 
305 1 1.34297 7.66645 31.5301 1.15935 -0.204756 -1.73336 8.24854e-06 6.90682e-06 1.96147e-07 
306 1 11.8423 6.32469 33.6105 1.73398 -4.79302 -0.452809 3.21723e-05 -1.77937e-05 7.78541e-06 
307 1 32.1738 24.391 25.9776 -0.80867 0.21727 -1.6259 8.97714e-06 -2.42696e-06 4.21755e-06 
308 1 20.7303 26.739 49.6118 -0.340599 -0.572338 -0.399624 6.19475e-06 -9.21827e-06 -6.47025e-06 
309 1 12.1929 30.7665 34.6494 -3.22885 -0.110702 1.93057 -5.31489e-06 1.05676e-05 -9.4974e-06 
310 1 47.076 34.7032 33.376 -0.866133 4.27168 0.0147144 -1.516e-06 2.64284e-06 2.76441e-06 
311 1 50.6448 34.0927 38.9633 0.165342 0.382694 1.15241 -1.44313e-05 3.82502e-06 -5.94118e-06 
312 1 37.2232 17.804 1.00829 1.87555 -1.19711 1.75413 7.17391e-06 -5.59684e-06 1.72237e-07 
313 1 34.7992 3.69047 1.37698 0.887787 1.29516 0.911262 5.5673e-06 4.91365e-05 7.44629e-06 
314 2 44.6723 50.8563 48.8853 0.374611 1.01022 2.54748 -8.31184e-06 2.73193e-05 5.66251e-06 
315 1 23.9587 40.7209 48.7028 0.322058 -1.04254 1.71043 -2.59919e-05 6.4459e-06 2.97433e-06 
316 2 42.9962 19.8738 17.6587 -0.366819 1.68114 0.578632 1.51393e-06 2.79766e-06 3.61748e-06 