ITEM: TIMESTEP
48021107
ITEM: NUMBER OF ATOMS
11664
ITEM: BOX BOUNDS pp pp pp
0.269038 56.698
0.269038 56.698
0.269038 56.698
ITEM: ATOMS id type x y z vx vy vz fx fy fz 
1 2 24.4991 16.5553 16.1099 0.0659303 2.24859 0.111429 3.5435e-05 -1.34858e-05 3.61922e-05 
2 1 43.673 46.1793 44.8175 -2.17625 -2.58966 2.62126 -2.11475e-05 2.84704e-05 -1.18642e-05 
3 2 25.8526 27.5177 53.0051 1.42404 -0.681952 -0.651109 3.88708e-06 -9.03205e-06 2.50774e-05 
4 2 24.1033 31.5936 2.79368 1.1427 1.30009 -0.526338 2.69873e-05 -2.52369e-05 -7.0747e-05 
5 2 30.0288 5.09958 23.1996 -0.211941 0.323923 0.407398 1.9322e-05 -3.57116e-05 3.81751e-05 
6 2 41.2083 8.13427 12.0334 0.723951 -0.414233 0.640304 3.95771e-05 1.64744e-06 2.52251e-05 
7 1 25.7024 0.720661 1.46847 -1.01394 -2.11647 0.874444 4.82812e-06 1.8542e-06 -8.44526e-06 
8 2 10.9812 55.0858 33.2656 -1.52531 0.149777 -0.303891 -2.44399e-05 -1.87388e-05 -3.95405e-05 
9 2 45.3629 25.6518 22.5372 -0.490766 1.23247 -1.34765 3.03175e-05 -4.59761e-06 -2.38087e-05 
10 2 22.794 0.299669 41.6836 0.239321 0.0940716 -0.491756 -1.44199e-05 1.57834e-05 3.65848e-05 
11 2 38.5795 51.193 32.6262 -0.278218 0.0456605 1.49345 -5.86945e-05 7.55288e-06 -1.06171e-05 
12 1 23.1543 17.5939 52.3568 0.134488 -0.838102 2.52976 -1.41376e-05 1.48357e-05 2.49028e-05 
13 1 47.2095 35.1756 5.35521 -0.143308 3.45009 2.41017 -2.57198e-05 -3.12273e-06 -4.37153e-05 
14 2 9.70846 29.466 34.9926 -0.184974 -0.281111 -0.69188 -2.40997e-05 9.11655e-06 -1.46677e-05 
15 2 11.79 18.5557 11.3516 -1.13004 -0.356547 1.19958 5.56492e-05 7.36626e-05 7.87703e-07 
16 2 34.7456 52.5447 30.9837 0.282651 -1.72524 0.25502 -0.000102576 0.00013963 -0.000119701 
17 2 14.0941 21.0311 19.8156 -1.60754 -1.91597 1.09066 2.0029e-05 -9.9518e-06 1.43273e-05 
18 2 2.81887 23.1467 55.7069 -0.598946 1.66956 1.50855 3.14059e-05 1.88053e-05 2.02509e-06 
19 1 27.322 47.2609 32.0573 -0.79922 -5.22709 0.736533 -1.19247e-05 -6.99463e-06 6.16185e-05 
20 1 54.5735 11.0113 24.7026 -2.85824 -0.16398 -0.00664172 1.01845e-05 -1.09898e-05 3.90237e-06 
21 2 19.7717 2.56406 26.6517 -0.387791 1.42709 1.30085 1.16021e-05 5.67928e-06 1.74634e-05 
22 2 49.7102 1.46071 34.1999 -1.82868 -0.150732 -0.662105 1.25256e-05 -2.09454e-05 8.62478e-07 
23 2 44.8474 30.008 21.4126 -1.11648 -0.0975625 1.34645 -7.09585e-07 5.24625e-06 8.86453e-06 
24 1 52.0497 18.6442 51.94 0.271219 -0.342437 2.15429 2.68405e-05 -3.00149e-06 -2.62753e-05 
25 2 53.7894 47.5346 20.9299 0.412485 2.25111 1.50189 -0.000138636 -6.33991e-05 -0.000140221 
26 2 13.4988 44.1735 27.22 0.574065 -0.22062 -0.64348 3.48374e-05 -3.66118e-05 1.62593e-05 
27 2 50.588 27.5088 18.4066 -0.134981 0.247535 0.74749 8.31148e-06 -1.24951e-05 -5.79641e-06 
28 2 31.754 23.0445 43.4723 0.184279 -1.84391 1.22138 -5.7057e-05 7.70301e-06 2.10218e-05 
29 2 6.84346 9.74719 32.6099 1.22793 0.02261 1.49847 2.69279e-05 8.44616e-06 2.91052e-05 
30 1 50.3308 30.1714 10.8145 -1.21298 -0.32612 -0.981049 -1.69861e-05 -5.81813e-06 -4.20011e-05 
31 2 11.0867 15.1463 49.1553 -0.989273 1.81338 -0.567018 2.72602e-05 3.13704e-05 4.29674e-05 
32 2 27.8886 1.14664 42.5217 -2.18258 -0.38509 -1.64768 4.48697e-06 2.28512e-06 -9.72816e-08 
33 1 17.1184 27.902 50.3317 1.79081 2.66498 0.229019 1.60558e-05 -8.8644e-06 -2.07789e-05 
34 2 15.358 32.2677 25.6308 -0.607418 2.23416 0.46772 6.49939e-06 -6.13708e-06 -1.76718e-05 
35 2 30.9956 13.4943 10.4879 2.16681 -1.21458 0.642393 2.0452e-05 -2.26249e-07 3.14002e-05 
36 2 24.3229 42.5357 25.0017 -0.726941 -0.310326 -0.907839 5.26547e-05 3.24929e-05 9.99627e-05 
37 2 6.90338 1.5084 20.6009 -0.189097 -1.60464 -1.2156 3.83133e-05 2.14848e-06 -1.57288e-07 
38 2 26.3808 53.8502 53.9571 1.67472 0.553821 0.118414 -2.66449e-06 1.5832e-06 1.95413e-05 
39 2 30.9682 39.1592 50.2694 0.775442 0.913556 -0.537691 -2.25995e-05 -7.71224e-06 9.3696e-06 
40 2 9.0818 45.6816 41.963 0.487583 0.719049 -0.472918 -3.11936e-05 2.69216e-05 5.92163e-06 
41 2 37.7344 12.7756 45.5464 1.59012 0.283565 1.03383 8.32588e-06 2.38577e-05 1.30802e-05 
42 2 5.38482 6.2552 4.83402 -0.322114 -1.16354 -1.76189 1.44192e-05 -1.5996e-05 2.06254e-05 
43 2 46.2259 25.8565 6.19261 -0.48644 -0.314965 0.314878 -2.60731e-05 -2.90624e-06 -1.38763e-05 
44 2 39.8939 3.23425 28.6386 -0.233051 -0.875952 -0.595239 3.80946e-05 2.39335e-05 3.50393e-06 
45 1 2.58083 20.3457 54.3987 0.838312 1.99822 -2.66257 1.47995e-05 4.6586e-05 1.21529e-05 
46 2 26.0024 40.273 56.0474 0.170632 2.28152 0.207231 -3.52039e-05 2.57155e-05 2.01007e-06 
47 1 17.8305 11.6341 9.53827 -1.98833 -4.1294 -2.32482 2.29501e-05 -4.183e-06 1.22329e-05 
48 1 28.0249 29.4644 18.6756 -1.16737 0.585582 -2.71255 2.83267e-06 -5.00725e-05 1.99804e-05 
49 1 46.6893 2.99224 24.4412 2.8475 1.85159 -0.670803 -2.75115e-05 -4.91285e-05 -1.90898e-06 
50 2 16.6557 40.7776 13.4488 -0.446205 -0.735605 -0.799984 -2.12675e-05 -9.20652e-06 5.73077e-05 
51 2 51.5929 42.4361 36.9749 -1.89821 -0.265082 -1.37691 -5.20923e-05 -2.34173e-05 -7.05885e-05 
52 2 44.0677 17.6537 51.8789 -0.63373 1.36416 -1.04348 8.60842e-06 2.49772e-05 1.06106e-05 
53 1 33.9491 13.6479 26.6343 1.22753 3.0396 0.307804 7.93586e-06 -1.13567e-05 2.21196e-05 
54 2 38.96 44.1234 32.5393 0.053453 -0.574023 -0.916478 -3.32976e-05 2.14963e-05 4.46981e-06 
55 2 52.8033 26.0012 44.3862 -1.03827 -0.049219 -0.135758 1.51794e-05 1.0074e-05 -1.05633e-05 
56 2 44.5057 19.117 24.6515 0.000236093 -1.04843 -0.0493774 -4.02539e-06 -3.45774e-06 1.5276e-08 
57 2 46.4635 28.8555 33.1877 -0.150946 1.81281 0.821033 1.43976e-05 2.03559e-05 -3.27208e-05 
58 2 20.338 54.6762 27.9159 0.71338 -0.649673 1.24376 1.30402e-05 -1.66062e-05 -3.02614e-05 
59 2 48.8324 52.946 8.90195 0.185762 1.62004 -0.165069 1.90397e-05 -8.09725e-06 3.85895e-06 
60 1 16.6052 56.5543 43.5961 -1.32447 4.06318 -2.41806 5.49255e-06 -9.62374e-06 -3.47573e-05 
61 2 38.4416 54.583 28.4604 1.45978 1.12426 0.0307561 8.11873e-05 1.45233e-05 -3.61656e-05 
62 2 37.8253 22.2219 30.2394 1.7894 1.27727 0.988186 -8.89813e-06 -1.72534e-06 2.78354e-05 
63 2 41.5833 10.2309 35.5724 1.19511 0.461551 0.873618 -1.83888e-06 3.14946e-05 2.07244e-05 
64 1 33.3412 18.1395 42.3669 3.70286 -0.684048 2.65186 -6.2704e-06 3.9376e-06 7.49827e-06 
65 2 19.8092 1.30429 54.2858 0.511349 -0.288679 0.0551998 -1.50573e-05 1.89084e-05 1.65135e-05 
66 1 4.54481 19.0529 49.4847 -3.23417 3.30139 -1.92664 1.18924e-05 2.34253e-05 5.21176e-06 
67 2 36.1721 7.28349 11.1435 -0.426446 1.57916 -0.301879 2.00772e-05 -8.93971e-06 2.21759e-05 
68 1 54.1327 36.9056 33.3692 5.22683 2.61661 2.36656 -2.66899e-05 2.13977e-05 3.68828e-06 
69 2 8.21551 53.0769 19.3027 1.96781 -0.0353779 -1.54154 1.32077e-05 -1.87128e-05 -2.07937e-05 
70 1 19.4466 40.2742 43.2864 0.0985161 2.14646 -3.77087 -3.75923e-05 6.47533e-06 1.40786e-05 
71 2 43.549 19.7105 27.1433 0.621834 -0.486462 -1.06768 7.14585e-06 -5.10361e-06 1.28121e-05 
72 1 30.165 29.9616 51.1224 4.11689 -1.10352 5.26803 2.74149e-06 3.48138e-05 -1.82611e-05 
73 2 34.9086 3.90928 0.392881 0.00946383 0.485188 0.28296 1.57502e-05 9.0037e-06 -5.15784e-06 
74 1 54.9645 15.6278 32.7376 -1.7571 1.39414 -3.54637 1.3109e-05 2.88919e-05 -4.14564e-07 
75 2 36.0464 30.5105 18.6584 -2.35115 -1.50326 1.24686 -1.79235e-05 1.39319e-05 -1.90706e-05 
76 2 53.3359 24.7354 15.9422 0.0864098 -2.16583 1.19515 -9.3387e-06 -2.62584e-05 5.72523e-06 
77 2 36.6872 55.2537 38.6929 0.503711 -0.87523 -1.66556 -9.06957e-06 -2.34123e-05 -4.78534e-05 
78 2 21.4478 16.3911 16.841 -0.713269 0.684564 -1.28032 1.56634e-05 -2.16762e-05 5.33105e-06 
79 2 17.4988 15.9333 25.2641 0.948822 -0.990697 0.605344 2.80923e-05 1.00145e-05 3.72583e-05 
80 2 56.389 23.7774 51.3886 1.54364 1.27488 1.64848 -1.30967e-05 1.39555e-05 6.58162e-06 
81 1 39.0142 35.897 11.7359 0.43353 1.34905 0.675466 1.288e-05 -5.99995e-06 1.00159e-05 
82 2 3.79581 33.1598 49.6518 -1.49987 -1.11927 -0.616144 -3.75051e-05 3.01941e-06 -2.25688e-05 
83 2 8.55312 47.9754 34.2099 0.816993 -0.688001 -0.685542 -1.1983e-05 -2.28202e-06 -1.65218e-05 
84 2 44.1207 33.0977 56.0367 0.224595 1.34589 -0.45171 -3.96915e-05 1.32626e-05 -1.3568e-07 
85 2 17.6881 42.0042 17.5373 1.87866 -0.0185865 0.992844 2.22214e-05 -5.32069e-05 2.31582e-05 
86 1 15.9117 2.88121 12.9446 0.370037 0.117631 1.49091 1.94146e-05 -4.34563e-06 3.21676e-06 
87 2 11.9006 42.7012 13.9537 -1.09469 -2.50037 0.0729244 7.88351e-06 -2.98578e-05 -6.39827e-06 
88 1 55.7661 4.09864 56.279 -0.303069 0.902834 -0.337381 7.87899e-07 8.3736e-06 2.30215e-05 
89 2 16.0242 36.5653 47.8599 2.7626 0.755998 0.50362 -2.75765e-05 1.45095e-05 2.10763e-05 
90 2 16.7335 23.6771 11.3775 -0.0899108 1.33644 -1.23128 -8.7755e-05 -5.25195e-05 -0.000108353 
91 2 4.81622 34.5059 53.6486 1.04176 0.570378 0.176778 9.46225e-06 2.68834e-05 1.22715e-05 
92 2 7.40245 4.70448 39.1566 -1.32203 -0.364479 0.115689 -1.70695e-05 -3.80138e-05 5.98014e-06 
93 2 27.7366 32.3064 36.6296 0.513848 -1.27552 0.914586 -1.43881e-05 -1.22649e-05 -1.93688e-05 
94 1 42.4746 31.9604 12.1494 -1.46351 -0.564093 2.69414 8.55151e-06 2.13793e-05 -3.96765e-05 
95 1 38.9369 35.323 42.5038 0.499188 0.633039 -1.17572 -9.45616e-06 -1.57376e-05 1.17965e-06 
96 2 6.2122 4.77683 7.48201 0.849283 1.1742 -0.282532 2.21839e-05 -2.01357e-05 3.50806e-05 
97 1 40.5961 49.0776 7.39015 3.65931 -1.04936 -0.118776 -1.96025e-05 -2.30595e-05 -5.54384e-06 
98 2 37.8599 32.1407 31.8395 0.659772 2.06505 0.917355 -8.24781e-05 -4.40533e-06 -2.67786e-05 
99 2 50.6316 0.788279 31.7152 -1.96719 -0.172078 1.20024 -6.46964e-06 -6.2033e-06 2.12102e-05 
100 2 39.5458 41.5472 14.5916 -1.70275 -0.95627 0.205935 -2.90651e-05 -1.0575e-06 -2.298e-05 
101 2 45.16 28.4827 40.6613 -1.30603 2.67219 0.586744 -3.04745e-05 -5.29334e-06 -3.61849e-06 
102 2 48.9115 42.996 7.15912 2.67207 -0.667846 0.780221 -7.34569e-06 -6.3913e-07 -3.41892e-05 
103 2 19.7271 10.5336 21.5735 0.212484 1.86718 -2.71991 1.73715e-05 -8.90916e-06 2.71032e-05 
104 1 21.0659 12.6158 20.6036 0.986246 2.96371 -3.17528 2.8992e-05 2.22046e-05 6.22606e-05 
105 2 1.58703 41.7508 23.7945 -1.33242 -0.76584 0.715873 -4.15226e-05 -6.84548e-05 -1.28732e-05 
106 2 40.1845 41.8367 23.6315 2.36142 0.971106 1.15072 -1.90401e-05 -2.26025e-06 -3.54142e-05 
107 2 8.61589 22.546 2.81392 0.392768 -0.33697 0.398217 -5.44727e-05 4.67706e-06 -2.61425e-05 
108 2 6.54959 30.9083 16.5954 -0.0982587 1.59727 1.34303 -1.17322e-05 -3.87729e-05 -8.15068e-06 
109 2 48.6249 50.0062 7.43376 0.00979618 0.0178078 -0.958415 6.89852e-06 -6.97688e-06 -9.66634e-06 
110 2 38.0163 23.1481 25.0854 -0.325268 -1.35387 -0.0816964 1.50845e-05 -2.30359e-05 -2.96412e-06 
111 1 37.0226 26.7784 45.7627 1.83286 0.553369 -1.02255 -2.49865e-07 9.32646e-06 -1.19626e-05 
112 2 1.96166 37.3867 25.1043 1.85699 -2.01596 -0.0367272 -3.04939e-05 -3.18365e-05 -2.14606e-05 
113 2 13.9731 13.6534 2.44464 0.530989 0.956068 0.247622 2.07607e-05 -9.94703e-06 1.36634e-05 
114 2 27.078 31.7235 1.96231 0.90869 1.32517 -0.368003 -8.46446e-05 -1.87925e-05 -9.31312e-05 
115 2 31.6178 19.1691 30.3934 -1.84427 -0.489589 1.14978 -1.06154e-06 -1.95186e-05 1.30424e-05 
116 2 17.216 52.4675 5.17038 -1.50757 0.702027 -0.34219 -8.51279e-06 -3.43145e-06 8.30794e-06 
117 2 41.2388 29.047 43.9745 -1.312 0.490013 -0.229476 1.59468e-05 3.44619e-05 4.45377e-06 
118 2 45.3397 29.3288 10.0101 1.0631 0.0904634 -1.7015 3.94357e-05 1.03477e-05 -1.15354e-05 
119 2 35.7919 29.5236 23.6985 -0.106315 -0.634744 0.448045 -8.28826e-06 -1.77488e-05 -3.49549e-05 
120 2 35.0961 34.6156 8.54239 0.0104999 -0.757328 -1.8709 -3.50874e-05 1.39942e-05 -6.95991e-06 
121 2 22.2831 53.4354 5.93871 -1.7385 1.29536 0.847604 8.05563e-08 -1.56429e-05 3.63371e-06 
122 2 55.0313 51.0086 40.4135 0.552573 0.277169 -0.431469 -4.34822e-05 -2.29812e-05 5.07567e-06 
123 2 18.8196 1.93613 0.326748 -0.498491 0.698716 0.890906 -1.18777e-05 1.33855e-05 2.00509e-05 
124 2 51.1936 56.4054 12.0735 -0.586346 1.31403 1.59018 2.57841e-05 5.9841e-06 2.52242e-06 
125 2 17.9809 51.0611 7.73749 1.06438 1.02072 1.77448 -1.64015e-05 -4.94745e-06 -5.38068e-06 
126 1 28.8181 39.7313 29.4474 2.00317 5.33186 -1.58561 -4.81642e-07 5.87651e-05 -2.15447e-05 
127 2 18.7108 39.8417 34.21 -0.53631 0.648549 -1.84374 1.67917e-05 3.19202e-05 2.13555e-05 
128 2 30.7975 55.7939 35.1784 0.878429 0.651341 -0.548252 8.13072e-05 3.4332e-05 -1.83211e-05 
129 2 47.6096 26.1503 55.154 0.503587 0.437126 -0.079419 -1.47855e-05 1.11609e-05 2.88499e-09 
130 2 15.47 51.5696 43.0902 1.56453 -0.637765 2.258 -3.48192e-05 2.6576e-05 3.38561e-05 
131 2 35.614 10.6229 15.0747 -1.20931 1.66931 0.72252 1.86898e-05 1.6668e-05 2.6781e-06 
132 2 54.7257 21.8192 21.0972 0.407307 1.48056 0.520088 3.42805e-05 -1.71099e-05 9.31301e-06 
133 1 10.4821 35.8851 7.07643 -3.13048 -0.0676537 -3.33096 -1.36017e-05 7.64432e-06 -5.7029e-05 
134 2 16.8413 2.49843 27.4201 -0.0495883 0.183813 0.566765 -6.05944e-06 2.99837e-06 3.12955e-05 
135 2 33.1538 44.7389 29.0486 1.88536 -1.07637 -1.21271 3.5826e-05 2.52752e-05 2.70802e-05 
136 2 56.0896 17.8514 31.7751 -0.111492 0.626891 -0.330296 3.84844e-05 -8.0711e-07 -1.01558e-05 
137 2 34.536 24.3351 54.2902 -0.409331 0.31092 -0.378609 -1.33927e-06 1.51073e-05 -1.52084e-05 
138 2 50.6207 11.422 28.0121 0.508319 -2.14692 0.00202295 2.69141e-05 -2.73975e-06 1.82612e-06 
139 2 50.2628 7.82064 31.7526 -0.525702 0.140005 0.543139 1.42495e-05 3.54661e-06 6.38891e-07 
140 2 39.5046 41.9016 40.2072 -0.819485 -3.27239 1.11993 -1.20336e-05 -9.24288e-06 5.19468e-06 
141 1 54.089 46.69 9.40508 0.113178 1.22936 1.10558 4.44536e-06 -5.52592e-06 3.6806e-06 
142 2 5.41864 15.4831 28.7168 -1.00474 -0.389683 -0.278249 3.88778e-05 -1.0053e-05 3.20766e-05 
143 2 36.8208 3.92666 7.17657 0.207957 -1.58545 -1.56365 1.15637e-05 -4.22969e-06 -9.99706e-06 
144 2 43.9432 16.8775 0.730338 -0.953587 -1.83896 1.37261 -2.0377e-06 2.26682e-05 2.24042e-05 
145 2 33.5974 56.2854 51.327 1.12847 -1.10533 2.30227 6.88555e-06 4.32734e-05 1.70609e-05 
146 2 15.9887 3.75583 7.72539 0.374356 -0.793139 0.0178925 -3.33241e-06 3.55916e-07 2.249e-05 
147 2 41.4096 51.3099 23.3639 -1.3362 1.39485 -1.68045 -1.69862e-05 8.50954e-06 -4.3257e-05 
148 2 37.0094 18.0552 55.9296 1.07774 0.0820247 1.02035 -7.76543e-06 2.07126e-05 9.5123e-06 
149 2 37.18 5.18611 36.1576 2.32958 -0.448486 -1.47764 1.21003e-06 1.50347e-05 -1.36144e-05 
150 2 53.7036 13.3327 16.692 -1.88732 0.622787 2.60988 2.79368e-05 -1.02702e-05 2.64468e-05 
151 2 18.2712 17.4913 46.4383 -0.477781 0.163713 0.918842 -7.7328e-06 1.08818e-05 2.39168e-06 
152 2 32.0369 23.8688 38.3046 0.787603 -0.344989 -0.902403 1.1855e-05 -4.38491e-05 1.02693e-05 
153 2 36.5414 41.381 15.3606 0.0381517 -0.275413 0.79051 -1.65184e-05 8.98815e-07 -3.4986e-05 
154 2 16.5427 32.2786 49.0354 1.79938 0.394718 -2.37223 -3.43755e-06 2.92837e-05 5.31404e-06 
155 2 47.8681 31.8775 27.0135 -0.606166 1.24207 0.47654 3.07224e-06 2.51758e-05 -4.27726e-05 
156 2 12.7517 29.6374 34.1929 -0.279279 -0.916665 0.843538 -2.13041e-05 4.55418e-07 -1.16905e-05 
157 1 30.0964 48.5315 42.7771 -0.78583 -2.25632 -0.875017 -3.37887e-05 9.15487e-06 -4.20455e-06 
158 2 16.2569 46.9027 18.7015 0.382547 0.667352 3.19133 3.58515e-05 -3.50087e-05 2.60085e-06 
159 2 54.0026 52.7479 54.4204 0.618328 -0.374217 3.50818 -7.95611e-08 1.14734e-05 -3.26476e-06 
160 2 21.1741 16.8949 50.7866 -0.0208117 0.96839 -0.569854 -1.47894e-05 1.96618e-05 1.40459e-05 
161 2 46.757 53.1624 19.0162 0.541407 -0.31905 -0.593238 -3.76944e-07 -1.88898e-05 1.89032e-06 
162 2 50.6988 3.13388 55.4762 -2.28787 -1.37586 -1.13601 -5.57251e-06 2.32232e-05 8.53506e-06 
163 2 49.0475 7.27295 22.3999 0.725201 -0.672132 -0.664738 -4.97316e-06 -2.43705e-05 3.54172e-05 
164 2 56.6432 37.3655 49.2348 1.4701 0.354255 0.0437217 -1.74815e-05 2.17698e-05 -2.80131e-06 
165 1 26.996 43.4115 10.157 0.655597 -2.50175 -0.535767 1.94714e-06 -9.79518e-06 1.02751e-05 
166 2 53.6634 31.3318 30.4377 0.0263776 -0.236747 -1.43136 -2.46631e-05 -2.18087e-05 -2.20035e-05 
167 2 46.5164 41.5325 36.156 0.930244 0.793011 0.318555 -4.86966e-05 -3.28302e-05 -1.49079e-05 
168 2 16.8906 33.6535 13.2316 0.245878 1.48724 1.14943 -1.70319e-05 -3.44335e-05 3.20863e-05 
169 1 12.2431 24.0667 31.2613 1.82637 -0.142488 2.08358 -6.4649e-07 1.27055e-05 -8.91559e-06 
170 1 14.3479 39.0987 16.8782 0.663323 -1.96563 0.897578 4.66354e-06 -2.59315e-05 -6.62126e-06 
171 1 17.9844 55.7289 39.7474 -1.70568 -0.130826 2.47896 -1.07531e-06 -1.30942e-05 -3.97959e-05 
172 2 40.8306 14.7201 51.3076 0.187259 1.51665 0.757419 1.74158e-05 2.7217e-05 4.14732e-08 
173 1 18.4431 28.7216 11.9379 -2.78758 -1.01981 -0.933686 -3.08598e-05 -8.97072e-06 -4.67124e-05 
174 2 55.126 44.4153 26.1702 0.318635 0.0585625 1.83114 1.34776e-05 -2.2552e-05 -9.0675e-06 
175 2 17.9904 27.7953 16.9343 0.055163 -1.20747 -1.21625 1.64651e-05 -3.32907e-05 -8.03134e-06 
176 2 20.3606 22.2524 13.0513 -1.13186 0.684999 -2.20256 -2.6712e-05 -3.88966e-05 3.86906e-05 
177 2 50.0714 55.0864 24.7518 -0.267568 1.88444 -0.940898 -5.83484e-06 -7.14941e-06 -1.0769e-06 
178 2 36.5639 28.0368 26.3576 0.103099 0.555015 -1.32591 4.41219e-05 -1.33225e-05 3.46039e-05 
179 2 33.4772 52.3074 38.2282 0.311857 0.774119 1.83084 -1.07682e-05 5.10505e-05 -3.10023e-05 
180 2 25.709 20.8547 38.5167 -2.67272 0.368932 -0.952362 2.39776e-05 1.57184e-05 3.13027e-05 
181 2 10.9373 11.1778 35.8872 0.125671 1.32784 0.127635 5.67724e-05 7.48431e-06 2.26754e-05 
182 2 6.24034 41.6467 29.7397 0.650221 2.44535 0.727069 1.78164e-06 -1.79647e-05 2.23184e-06 
183 2 14.9636 56.5383 36.4588 0.518239 2.40889 -0.225426 1.00234e-05 -7.86972e-06 5.21727e-06 
184 2 33.1931 42.7464 53.3428 0.931472 -0.345905 0.0335754 -3.61695e-05 3.31373e-05 -2.72752e-06 
185 2 6.75254 37.3596 30.8832 0.0250464 -0.299579 0.392102 1.22489e-05 -2.5995e-05 -2.78669e-05 
186 2 15.8739 37.7542 28.4807 -0.756171 0.263879 0.733321 2.89131e-07 -1.49428e-05 -4.00198e-06 
187 2 16.1857 17.3237 5.532 -0.514785 -0.32872 0.202435 3.90918e-05 -2.96189e-05 -1.18483e-05 
188 2 45.8022 50.2083 25.4862 -0.213541 -1.46326 2.01716 -3.28004e-05 -1.29408e-06 -4.03551e-05 
189 2 23.2957 27.0977 37.044 -0.489729 1.86527 -0.0233405 7.66369e-06 2.01787e-05 -3.49876e-06 
190 2 13.3618 53.8489 3.21879 -0.683796 0.251091 0.0949982 -1.38667e-05 -3.05182e-06 -1.23814e-05 
191 2 26.6097 32.0715 44.1602 0.446929 0.205659 -0.108738 4.30087e-05 6.15775e-05 2.38451e-06 
192 2 10.9667 49.4744 5.24719 0.349972 -1.01547 0.197199 1.36577e-05 2.71904e-07 -2.1693e-05 
193 2 50.5777 41.0872 32.938 -0.412542 -0.172288 0.0765189 -2.48077e-05 1.79681e-05 -1.02844e-05 
194 2 33.4386 8.43759 40.876 -1.4464 -2.13491 0.785646 1.32508e-05 2.68417e-05 2.76514e-05 
195 2 49.2049 54.5707 55.1099 0.920808 -2.0022 1.0401 -9.6544e-06 8.97169e-06 -8.17376e-06 
196 2 31.7654 19.1147 13.5164 0.272828 -2.0374 0.503058 2.59976e-05 4.6597e-05 2.64288e-05 
197 2 44.1362 7.11493 55.7605 -1.91295 -1.4491 -0.826329 1.23726e-05 2.37238e-05 6.85444e-06 
198 1 8.56861 42.087 45.5846 4.20106 1.45517 -3.84772 -9.80503e-06 -5.14933e-07 -1.30629e-05 
199 2 49.5364 41.6851 35.4176 -0.184632 -0.220403 -0.945724 5.4383e-05 5.2437e-05 -3.2052e-05 
200 2 7.36427 51.5957 54.6813 -0.482513 0.815584 -2.02265 -3.95563e-06 -6.13378e-06 -9.7004e-06 
201 1 26.3955 39.9207 39.3615 0.203993 -0.916884 4.18488 -3.28494e-05 7.46091e-06 -1.86268e-05 
202 1 23.7503 20.8903 31.6605 -1.80257 -2.47255 1.27179 -8.0598e-05 -2.71513e-05 -4.38375e-05 
203 1 10.4625 20.5401 3.14665 0.68058 -1.4325 -1.86897 -6.50551e-05 5.77292e-05 -1.07162e-05 
204 2 36.7272 0.737248 45.3004 -0.191697 0.377113 1.50564 -2.01997e-05 2.67506e-05 4.17767e-06 
205 2 17.8725 10.7827 31.7442 1.33268 -0.90001 -0.598988 4.93577e-05 5.80006e-06 4.67367e-05 
206 2 19.2717 25.5102 8.14169 1.27915 -1.53545 0.567162 8.85493e-06 7.28893e-06 -2.1145e-06 
207 2 16.1397 3.01643 30.052 -0.394205 0.672503 -3.87644 -1.39996e-05 8.13501e-06 2.55661e-05 
208 1 36.2792 46.6168 9.19967 -2.57766 -0.192055 2.22482 -2.8962e-05 -1.60376e-05 -6.61658e-06 
209 2 49.827 25.8239 45.1561 -0.0251678 1.64096 2.89769 -4.79925e-06 8.54567e-06 -2.60492e-06 
210 2 20.4293 8.42887 46.6536 -1.29426 1.71456 1.11498 2.50865e-05 2.51397e-05 2.06561e-06 
211 1 50.3795 38.312 31.5332 1.83324 0.311878 1.46826 -3.78739e-05 1.47224e-05 -3.3656e-05 
212 1 54.3508 45.723 54.334 -1.11493 2.57762 -0.577287 -2.63042e-05 4.08693e-05 -3.21151e-05 
213 2 51.2148 33.0347 21.2165 2.43405 -1.20947 -1.36201 -2.96158e-05 -9.19356e-06 5.38415e-06 
214 2 50.0197 4.98798 30.3352 -0.701525 -0.55304 -2.30216 1.86545e-05 1.58983e-06 -6.99046e-06 
215 2 36.3859 43.1463 21.866 -1.24875 -0.342674 1.57774 1.03748e-05 -7.22643e-06 -3.31921e-05 
216 2 28.2716 17.2832 41.4567 2.56286 -0.354499 1.97656 3.92939e-06 2.97774e-05 5.43749e-06 
217 2 51.4165 9.21438 35.956 -0.444383 -0.591066 -1.66635 2.01604e-05 6.25709e-07 -3.43992e-05 
218 2 23.0912 50.8295 53.3882 -0.763175 1.57908 1.1981 -2.24194e-05 -3.45526e-06 -2.01396e-05 
219 2 45.7944 21.3803 23.6758 0.517853 0.831692 -0.482221 7.00323e-06 -1.18098e-05 -5.79359e-06 
220 1 48.1065 7.84824 7.94844 1.88192 -1.52653 -0.401673 1.00586e-05 5.88462e-06 1.59668e-05 
221 2 22.5036 44.4921 55.5808 0.987343 1.34959 1.97603 -3.46191e-07 -3.2181e-06 1.20077e-05 
222 2 14.2437 49.3586 44.1971 1.86068 0.255046 -1.31981 8.49576e-06 7.23654e-06 1.45376e-05 
223 2 27.8638 48.9311 52.7568 -2.12176 1.10207 0.631245 -1.57145e-05 -6.88647e-06 -2.24271e-05 
224 2 8.62642 44.1028 52.1733 2.32439 -1.21767 -1.25989 1.56618e-05 -1.07886e-05 -3.63928e-05 
225 2 17.8095 46.4858 25.351 -0.966139 0.0533979 0.512689 8.12888e-06 -3.63293e-05 -3.81188e-06 
226 2 49.4487 34.8261 51.859 -0.346499 -1.7256 1.78157 -2.54498e-05 1.92732e-05 -1.18111e-05 
227 2 2.2937 50.6693 53.851 0.150742 -0.533733 -0.871964 -1.69343e-05 -6.82487e-06 -4.03557e-05 
228 2 14.5497 33.7027 23.1138 -0.544885 -1.18767 -1.19322 1.12447e-05 -1.61517e-06 1.23943e-05 
229 2 12.9029 26.7927 15.9505 -0.564043 0.386308 -2.10973 -1.63667e-05 -3.41822e-05 -4.17252e-06 
230 2 6.64656 39.0441 11.854 0.464612 -0.0257861 1.06358 1.90299e-05 -3.2281e-05 -9.49116e-06 
231 2 51.4584 10.8783 25.4914 -1.42658 -2.57101 -0.981884 1.62369e-05 -9.90633e-08 2.01051e-05 
232 2 2.53063 7.18345 17.4249 -1.34593 0.543501 -0.870065 2.372e-05 -1.97665e-05 3.64128e-06 
233 2 54.6639 3.56491 46.8883 0.00366961 -0.223155 -1.12508 0.000101633 0.00011338 7.40059e-06 
234 2 27.7945 55.6407 36.085 -1.63403 1.35709 1.29534 -1.55433e-05 -2.9987e-05 2.21236e-05 
235 2 26.2206 39.1088 44.3625 0.695684 -0.18472 -0.758432 -3.56286e-05 1.64273e-05 -1.63512e-05 
236 2 22.8567 46.0563 45.4595 -2.31882 1.00346 -1.33243 -3.02562e-05 1.29819e-05 2.28307e-06 
237 2 2.81474 9.37249 41.187 0.163702 0.299772 1.49297 -1.41226e-05 -3.91348e-05 -2.45439e-05 
238 2 48.9204 25.3394 35.8915 0.923995 0.535149 -0.124767 -6.08517e-06 9.20759e-07 -2.62235e-05 
239 1 11.1072 2.64461 46.3366 1.1307 -0.317653 -1.53234 1.08576e-05 6.9869e-06 1.60122e-06 
240 2 2.91306 1.88038 6.89793 0.796582 -1.42529 -1.71697 9.66713e-06 -5.11163e-07 1.34725e-05 
241 2 6.70856 47.1016 7.03213 1.92247 2.68435 0.258705 -6.09008e-06 -1.25058e-05 -7.81665e-06 
242 1 19.5151 48.0756 13.0262 2.51065 -1.95742 0.916036 5.66888e-06 -2.26594e-05 7.4596e-06 
243 2 16.4913 56.0428 26.0519 0.23125 0.953217 -1.54032 4.01818e-05 4.72191e-06 1.953e-05 
244 1 38.2392 55.3283 22.985 1.16742 3.08618 -1.86838 3.44653e-07 1.70788e-05 -4.69848e-05 
245 2 49.1548 34.0313 0.437874 0.122042 0.991401 -1.04685 -6.49674e-05 -2.08982e-05 -6.40146e-05 
246 2 31.6241 10.5262 40.6058 -2.23668 -0.31986 -0.834626 -4.60961e-06 3.71425e-06 6.4617e-06 
247 2 35.3298 54.2102 51.4748 1.24006 -0.29929 -1.06661 -2.56503e-05 3.81148e-05 3.78207e-06 
248 1 50.415 48.0113 7.62898 -3.94859 -2.76359 1.05483 8.78729e-06 -5.86768e-06 -1.08226e-05 
249 2 26.1428 5.17893 48.8896 -1.35034 0.305416 -0.0661757 2.84457e-05 1.14147e-05 3.34184e-05 
250 2 3.70616 55.7291 54.2683 -0.8347 1.226 -3.066 -5.56191e-06 -6.26201e-06 -1.50865e-05 
251 2 16.5785 48.9535 34.2207 -0.143565 2.03022 1.84603 -5.42769e-05 2.19927e-05 -7.56158e-05 
252 2 41.1091 40.892 51.9793 -0.908189 -2.57156 -0.787577 2.14704e-06 3.75792e-05 -4.41662e-06 
253 1 47.1382 54.9838 8.77416 -5.01728 -1.3016 3.17482 2.28479e-05 8.27616e-06 -8.03796e-06 
254 2 41.3761 50.4607 36.8602 -0.184753 -0.974599 0.0406121 -1.87351e-05 -4.95237e-06 -2.37925e-05 
255 2 40.8952 5.30841 10.556 1.65155 1.10022 0.6216 3.77532e-05 2.62233e-05 1.45798e-05 
256 2 22.5949 8.75685 14.1641 -0.620953 -2.01906 -0.252393 3.52391e-05 -1.98465e-05 2.84614e-05 
257 2 0.804317 31.1065 43.8761 0.477473 0.432307 1.51327 -3.88028e-07 2.06851e-05 1.71845e-06 
258 2 38.6653 55.8823 40.3971 -0.934437 -0.448134 -0.17654 -3.48931e-05 -3.96801e-08 -6.22572e-06 
259 2 46.1767 29.9496 44.7836 -0.899158 0.719616 -1.77066 3.04523e-05 3.68843e-05 -3.74879e-07 
260 2 8.1315 15.0067 50.0702 1.15846 -1.31998 3.63981 -1.11251e-05 -2.65655e-05 1.40984e-05 
261 1 25.8391 47.4719 25.3685 -2.54868 -3.46922 -0.681501 -4.2149e-06 -2.50899e-05 -3.93589e-05 
262 1 4.26812 38.832 52.352 0.565245 4.62174 -0.787344 -8.39914e-06 2.68035e-05 1.17289e-06 
263 2 13.7216 46.8043 2.92435 -0.586374 1.54999 -0.816968 -8.15112e-07 -1.36961e-05 -3.82817e-05 
264 2 46.2828 40.6996 41.2163 -0.412139 -1.66438 0.462935 -2.44221e-05 -5.51125e-06 -2.30821e-05 
265 2 2.80955 44.0688 22.9723 -0.662258 -0.692876 -0.438566 2.11929e-05 -2.04698e-07 -1.2621e-05 
266 1 41.5072 42.3749 16.2944 -1.0673 0.12552 -2.14437 -1.51864e-05 -1.29116e-05 -5.26114e-05 
267 2 23.4299 37.7022 8.0881 0.661074 1.40493 0.663388 -1.77086e-05 5.83777e-06 -3.73183e-05 
268 2 32.4022 40.245 37.795 0.323603 -0.275682 -0.937196 -4.058e-06 -6.36914e-07 -3.3676e-05 
269 1 22.124 28.9237 51.1076 1.22394 -2.12668 1.38275 -2.71144e-05 3.00749e-05 1.28168e-06 
270 2 11.5731 6.95304 37.2229 -3.05887 0.190237 -1.71338 -2.10979e-05 -3.185e-05 7.38372e-06 
271 2 53.8778 36.1279 38.4072 3.06407 2.47336 -0.578276 -1.79618e-05 3.73624e-06 -9.09492e-06 
272 1 50.3442 18.4842 28.159 -2.34895 -1.11873 0.328778 1.25962e-05 7.83524e-06 2.1195e-05 
273 2 40.7909 24.1489 10.3963 0.153135 -0.579148 0.78419 1.07698e-05 7.96617e-05 7.0529e-05 
274 1 39.6052 2.2272 16.7725 -0.620011 -0.612808 -2.38735 2.33067e-05 4.24765e-05 1.0131e-05 
275 2 34.6519 29.0381 5.68119 1.10486 0.885106 0.497218 -6.3164e-06 6.25966e-06 -2.55416e-05 
276 2 48.269 18.899 38.278 -0.58387 -0.500101 -0.425872 1.27883e-05 9.99634e-06 1.3068e-05 
277 2 3.44498 27.5483 46.8009 0.902059 0.430947 -0.164002 -3.84602e-05 1.94826e-05 1.47691e-06 
278 2 2.16454 32.1824 31.3637 0.383293 -0.602434 1.49833 -2.44138e-05 -4.68389e-06 -1.60437e-05 
279 2 47.7372 47.5831 48.0484 0.902562 0.925196 1.62662 -3.80559e-05 1.52093e-05 -5.17371e-05 
280 2 43.8284 34.3301 36.8061 -1.67117 -0.222728 -0.216882 -8.15594e-06 2.28675e-05 -1.55299e-05 
281 2 2.11557 12.3616 10.9234 -1.71779 1.17184 2.91429 3.26835e-05 1.65145e-05 4.56996e-06 
282 2 18.7578 11.0782 7.11989 -1.61057 1.64254 -0.700358 2.0537e-06 1.58161e-05 1.63776e-05 
283 2 9.82393 1.62187 19.8165 0.265739 1.81852 0.301732 8.15923e-06 8.65999e-06 4.35377e-05 
284 2 3.66844 7.96931 43.9057 0.868654 -0.397527 2.95937 -3.01721e-05 -2.8678e-05 1.05026e-05 
285 2 22.5212 8.09744 36.4443 0.421106 1.17718 -0.8668 1.37965e-05 1.29561e-05 1.2879e-05 
286 2 16.4718 46.104 7.23435 -1.80685 0.830387 1.50269 -1.27246e-05 -1.46107e-05 -5.13866e-06 
287 2 3.53835 18.1844 6.14275 -0.263131 -0.333051 1.78531 3.68822e-05 -3.1379e-06 6.10879e-06 
288 2 40.7164 21.5127 34.5412 -0.607691 3.02252 -1.91274 2.66665e-05 7.08405e-06 2.26172e-05 
289 2 4.76714 10.5493 3.59127 -0.504972 0.674796 -0.318841 3.41516e-05 -2.35675e-05 1.90356e-05 
290 2 29.028 30.6698 22.73 1.01071 1.37083 3.41936 -3.39983e-05 -2.34779e-05 -2.13271e-05 
291 2 20.6707 23.8698 50.757 0.62412 0.987232 -0.525568 1.69549e-05 5.368e-06 -1.93082e-05 
292 2 47.7698 27.0195 50.1172 0.359997 0.332221 -1.05301 1.23811e-05 4.05717e-05 -2.42235e-06 
293 2 30.3649 8.67206 2.36307 0.98706 -0.326772 0.0500261 9.1552e-06 -1.88354e-05 -1.91051e-05 
294 2 48.9652 31.1752 55.5133 -1.25903 0.521445 0.893705 -4.41179e-06 3.62367e-05 1.74532e-05 
295 2 9.34147 14.8698 25.2838 0.976018 -0.751263 -1.39068 2.05921e-05 -3.19065e-05 3.02866e-05 
296 2 22.192 22.0035 19.8239 0.280899 -0.339601 -0.765408 -2.33599e-06 -1.11311e-05 2.54634e-06 
297 2 10.8391 11.5606 53.0082 -0.345289 -1.12727 0.221707 -3.00559e-05 3.23141e-06 1.02625e-05 
298 1 25.093 5.14526 17.121 0.15759 0.511171 -4.06335 1.94918e-05 4.6347e-07 -3.20015e-06 
299 1 46.6244 11.9654 31.247 3.43855 -1.43482 0.360127 8.38455e-06 -8.28631e-06 -1.02754e-05 
300 2 6.65917 16.6319 15.7591 0.295355 -2.23553 2.53103 1.41379e-05 -2.17178e-05 4.12732e-05 
301 2 49.0828 49.5943 21.7398 -0.373287 0.135558 0.0906489 1.66546e-06 2.54478e-05 -3.11403e-05 
302 2 22.1633 4.86816 0.906693 -0.368546 1.6685 0.771665 5.45391e-07 1.81844e-05 3.1017e-05 
303 2 31.8069 26.9642 56.4673 -0.640645 0.635074 0.435259 5.33306e-07 -8.14852e-07 -2.40635e-05 
304 2 25.7085 24.742 51.5816 0.64556 -0.752145 -0.913122 -1.87141e-05 2.16892e-05 1.20309e-05 
305 2 21.8611 19.2687 18.2815 0.839796 1.17684 -1.1002 9.55652e-06 -2.4588e-05 3.16285e-05 
306 2 44.4479 51.4515 30.7953 -2.9003 0.319333 0.653193 -1.82566e-05 -1.95301e-05 1.92393e-05 
307 2 2.20063 36.1159 44.3482 0.111477 -0.332812 0.0174587 -3.69573e-08 2.63821e-06 -1.82289e-05 
308 2 44.9542 5.67587 2.05794 0.839928 -2.2073 -2.22437 1.21181e-05 1.99484e-06 2.47329e-07 
309 2 9.93544 32.1458 10.7694 -0.44591 0.0643178 0.505393 2.98448e-05 1.07391e-05 8.89603e-06 
310 2 41.1928 53.6226 55.0211 1.56667 1.58008 1.02539 2.09649e-05 2.84049e-05 1.72668e-05 
311 2 48.3497 25.8037 21.6832 0.852241 -0.233308 -1.55977 8.47364e-06 -1.83069e-05 -1.62427e-05 
312 2 25.3518 16.0304 30.4769 1.15992 -0.879342 1.43908 1.5982e-05 -1.90379e-05 1.34624e-05 
313 2 37.3142 46.1448 6.82117 2.69555 -1.01782 -1.51768 -9.15607e-06 -1.35448e-05 -5.43704e-06 
314 2 30.9187 30.4459 3.75386 -1.07634 0.264071 0.835632 -5.90863e-06 1.31185e-06 -2.92568e-05 
315 2 29.3387 55.8971 20.2575 -0.533892 -2.39632 0.559108 2.80356e-05 -1.58245e-05 5.59673e-05 