ITEM: TIMESTEP
39021214
ITEM: NUMBER OF ATOMS
11664
ITEM: BOX BOUNDS pp pp pp
1.06905 55.898
1.06905 55.898
1.06905 55.898
ITEM: ATOMS id type x y z vx vy vz fx fy fz 
1 1 31.6386 26.124 8.20967 1.93902 1.50638 0.69303 2.46881e-05 1.35141e-05 1.47441e-05 
2 1 16.9251 41.1621 40.8034 1.52062 -0.891922 1.81474 -1.58107e-05 -8.64146e-06 1.40747e-05 
3 1 26.0347 55.2672 46.79 4.13724 0.135188 -1.70146 -1.67792e-05 1.83675e-05 -1.24215e-05 
4 2 24.6954 26.4045 47.1815 -1.32019 -0.324567 -0.327122 5.88181e-06 -1.27358e-05 -1.14414e-05 
5 2 23.1569 16.0279 32.0778 -0.200251 -0.0948536 -0.670879 1.65006e-05 3.20015e-06 2.857e-06 
6 1 1.54526 48.318 37.9061 -0.732898 0.503709 -1.24816 1.78017e-05 5.61172e-06 8.4181e-06 
7 1 37.0889 42.0625 44.6417 -0.596083 0.998857 0.050776 1.68227e-05 -6.78535e-05 6.02515e-05 
8 2 52.7052 47.886 50.9325 1.12655 -0.693425 0.53636 -1.77261e-05 5.46701e-06 3.04075e-05 
9 1 15.9623 48.592 38.6311 2.52441 0.852288 4.8159 -6.93053e-06 1.36498e-05 1.42398e-06 
10 1 53.6426 20.3672 39.2524 2.73956 0.854906 -0.794619 -2.21212e-06 -1.25585e-05 -1.61633e-06 
11 1 38.4794 5.38122 43.0068 -0.343174 -0.268909 1.04482 -1.25377e-05 1.10931e-06 -9.14268e-06 
12 1 36.7362 50.4048 21.1615 -0.317733 3.54472 0.378922 -3.9908e-05 -2.35113e-05 -3.86071e-05 
13 1 7.21941 17.8831 31.7155 3.2894 -0.0938232 5.59762 -6.23129e-07 -4.17921e-06 3.77533e-06 
14 1 6.05288 55.8133 29.9589 -0.54117 2.49214 1.15886 -2.21228e-05 1.18696e-06 -7.2633e-06 
15 1 13.7492 20.1862 33.5153 0.226786 0.431636 -1.85002 3.90742e-06 -1.39388e-06 6.65113e-06 
16 2 28.6509 48.9958 2.61512 0.00913034 1.52688 0.525894 -2.4175e-05 3.91085e-06 1.38614e-05 
17 1 5.58502 42.7542 21.2644 -0.0316537 -3.14779 0.631124 2.51146e-05 -2.88168e-05 -8.75596e-06 
18 1 35.7885 38.1788 5.04912 1.12703 -0.0457736 -0.629405 -2.8761e-06 3.24039e-06 8.42416e-06 
19 1 28.3423 44.7259 1.73609 0.729812 1.06549 -2.03177 4.52707e-06 1.71472e-05 -1.06897e-05 
20 1 39.7794 23.0448 14.2241 1.39694 1.68886 1.29433 1.84437e-05 2.37505e-05 4.01179e-06 
21 2 41.4474 1.45162 26.791 0.119062 0.201337 -0.0410379 -1.79382e-05 -3.20776e-05 -2.51672e-05 
22 2 7.50455 1.36625 13.79 -1.00989 -0.824903 0.102927 -9.19242e-06 -5.34423e-06 3.42077e-06 
23 2 7.64179 37.2512 2.70563 1.58803 -0.062078 -0.991818 -9.50026e-07 7.07043e-06 2.19946e-05 
24 1 28.2868 44.1395 42.9951 -2.27557 1.75518 2.82341 -9.00162e-06 2.48468e-06 -6.86215e-06 
25 1 25.7456 28.3955 25.7264 0.48695 1.2946 -2.88388 1.01375e-05 1.9989e-05 9.623e-07 
26 1 43.5893 44.4617 39.1544 2.07409 0.709479 3.63504 -3.78837e-06 -2.80969e-06 -2.95104e-05 
27 1 1.75307 18.3549 21.4805 -1.87702 0.646116 0.810676 -3.97927e-05 -3.95378e-06 5.57269e-06 
28 2 48.6063 32.6305 34.458 -0.720783 -0.144499 -0.277704 6.75556e-05 2.89099e-05 1.54129e-05 
29 2 38.1572 7.86606 44.5186 1.37459 -0.285098 -0.0371363 -2.57884e-05 3.28262e-06 6.60306e-06 
30 1 4.76867 51.0625 30.3998 -2.84109 1.50079 0.0406182 -2.35811e-06 3.34443e-06 -8.66273e-06 
31 2 48.0285 12.2661 37.3577 1.65274 -1.22705 0.329152 -5.12478e-06 -2.01334e-05 -1.43297e-05 
32 2 17.3078 54.3894 53.9062 1.51057 0.116291 -0.33795 -1.46128e-05 8.88519e-06 -6.18738e-06 
33 1 18.749 22.7278 35.6661 -0.620432 -0.902729 -0.861777 1.54061e-06 9.25142e-06 -4.70678e-06 
34 2 29.9294 45.781 14.6704 0.404098 -2.35159 0.289089 -2.60698e-05 3.0597e-06 -2.58532e-05 
35 2 34.5285 36.3948 55.3692 0.430388 -0.0154664 0.0422083 6.72784e-06 -1.39049e-05 2.00955e-05 
36 1 44.9143 5.76099 33.732 -1.52307 0.708581 0.694318 -1.62641e-05 -1.10176e-05 -1.05463e-05 
37 2 20.9716 6.43218 3.70727 -2.31071 0.410882 -0.149319 -1.05985e-05 7.12532e-06 3.40006e-06 
38 2 47.5467 48.6019 16.5848 0.903038 -0.291718 0.0702328 4.10741e-05 -5.88122e-06 1.40919e-05 
39 1 18.7554 1.67623 36.3187 1.11762 3.25602 4.44211 -3.46054e-06 1.88153e-05 5.26444e-06 
40 2 35.6914 29.1185 2.31583 0.152895 0.561552 1.74383 9.36265e-06 1.90084e-06 1.22827e-05 
41 2 9.86993 54.1458 20.5789 0.0903186 0.441862 -0.913775 1.68664e-05 -1.67021e-05 9.27376e-06 
42 2 48.354 40.7546 33.3655 -0.899839 1.30638 -1.765 1.9933e-06 -5.99421e-06 2.29028e-06 
43 1 30.7758 12.5932 20.3532 0.784025 4.07702 -0.650541 -9.30127e-06 1.83954e-05 5.22569e-06 
44 1 6.76667 23.3423 20.8814 -3.23982 -1.52216 -2.11659 -1.18065e-05 -2.04596e-05 6.5427e-06 
45 1 39.7218 40.1742 44.8769 -3.42459 1.85031 2.38012 9.92806e-07 3.66156e-05 -6.28328e-05 
46 2 21.0852 6.34709 15.3296 -0.789028 0.526843 -1.72382 -4.3718e-06 1.37205e-07 -2.27321e-06 
47 1 38.6603 45.6464 29.2779 0.446944 -0.254661 -1.47456 -1.73251e-05 -2.0498e-05 5.21976e-06 
48 1 9.95961 49.4356 10.121 -3.65496 -1.68142 2.76183 5.45012e-06 2.93032e-05 -1.28494e-05 
49 1 20.5777 44.4172 9.94161 0.723224 -0.0368476 -4.24249 -1.25467e-06 -5.53661e-06 -3.09872e-06 
50 1 44.5058 32.2016 20.8403 -0.788374 -1.58733 4.25363 3.61709e-05 4.97108e-06 2.3629e-05 
51 2 39.8498 30.8377 54.5709 -0.277564 1.15305 -1.86086 1.90666e-05 -3.51234e-06 2.90944e-05 
52 2 35.312 7.42023 40.5362 1.80941 -0.877879 -1.31196 7.55598e-07 -8.69134e-06 -5.05557e-06 
53 1 20.8141 27.7631 5.34573 3.19211 1.35888 0.683479 1.29302e-05 -6.23674e-06 1.20687e-05 
54 2 49.5382 53.3537 10.9105 0.1775 -0.445762 -0.952247 8.38285e-06 1.73921e-06 1.39566e-05 
55 2 38.8004 35.9129 37.7192 1.31061 -1.18589 1.25356 -6.76709e-06 -3.3554e-06 -2.62225e-05 
56 2 18.7972 53.7898 31.3979 0.0831375 -0.28239 -0.103073 -4.15501e-05 2.16299e-05 9.36552e-06 
57 1 17.0994 13.3859 50.0647 -2.30503 -0.0595078 -1.19708 -1.06005e-05 -6.47328e-06 1.04798e-05 
58 2 39.6657 44.3831 35.4517 0.0614081 0.555312 -0.0426732 8.61178e-06 -2.91766e-06 1.50255e-05 
59 2 39.9587 30.6348 2.29909 0.531426 2.02083 -0.22359 1.46403e-05 7.50143e-06 1.96668e-05 
60 1 19.9858 7.21051 26.2193 -1.13214 -0.833088 -0.0843897 -2.29293e-05 3.15964e-05 3.04773e-05 
61 1 8.42476 34.2768 42.923 1.64553 -2.81989 -0.125926 -2.30114e-06 2.65953e-06 -1.469e-05 
62 2 48.9771 7.13669 32.98 -0.0296491 1.47439 -0.0376795 -1.05703e-05 -3.0241e-05 -2.44855e-05 
63 1 7.59206 12.3779 55.6413 0.393328 1.42942 -2.74113 -7.06121e-06 1.1785e-05 3.57754e-07 
64 1 16.6967 7.65144 44.0387 -2.2747 -0.814411 0.119999 -1.3513e-05 7.46206e-06 5.64378e-06 
65 1 32.2235 20.4668 24.7237 -0.361224 2.23557 -0.160712 1.56072e-05 1.16802e-05 -1.13887e-06 
66 1 10.1297 15.2055 9.01865 1.40948 -2.10909 -1.05424 -9.64373e-06 1.2245e-05 8.48373e-06 
67 1 35.7886 13.3158 30.0213 3.25932 1.43142 -0.829619 -1.56141e-05 -3.76165e-06 -1.97642e-05 
68 1 10.7311 40.6582 39.6678 -0.414183 2.35104 -3.95295 1.47381e-06 -1.12171e-05 3.60912e-06 
69 2 30.0953 27.1119 6.32448 0.479831 0.647892 -0.546898 1.39253e-05 2.69025e-05 2.85432e-06 
70 1 5.20602 32.8143 28.9924 -0.798307 -3.59946 1.47841 1.58104e-05 -1.81191e-05 7.12547e-06 
71 2 23.899 27.3336 8.62734 -1.12982 -0.471154 -0.70292 2.79664e-05 -7.98617e-08 4.78869e-06 
72 1 27.0747 50.3547 21.6688 4.58626 1.14291 -4.9204 -2.94789e-05 2.56837e-05 1.13268e-06 
73 1 48.5664 44.2319 41.3707 1.42298 0.819823 -0.0925759 -7.27752e-06 -2.16911e-05 -1.09104e-05 
74 1 18.3284 10.5146 18.0793 -1.97278 -1.01413 0.903683 -1.15999e-05 -2.11194e-05 -6.72503e-06 
75 1 42.5505 7.34515 31.469 -0.595769 1.00483 0.99481 -1.61987e-05 -1.91281e-05 1.07931e-05 
76 2 6.28048 11.0961 45.717 -0.400859 0.727563 0.317074 -2.16277e-05 2.64769e-06 -1.68813e-05 
77 2 47.194 30.3818 32.8496 0.115631 0.895734 0.156903 0.000188975 -0.000139462 -0.00018523 
78 1 4.09346 40.8947 22.6942 0.108588 1.46337 1.99557 2.354e-05 -1.57816e-05 -1.41339e-05 
79 2 40.5463 5.33215 33.0742 1.47084 -0.232999 0.126369 -1.25606e-05 3.22603e-05 -3.08573e-06 
80 2 40.3017 1.85536 3.64824 0.944628 -0.759228 -0.188817 8.64981e-06 3.53309e-05 -4.22248e-05 
81 1 22.4652 23.9157 33.2063 2.36144 -2.47469 1.52671 1.41754e-05 3.54901e-06 1.52621e-05 
82 1 38.1031 29.4756 5.91634 -0.0898858 5.69793 1.3263 3.98822e-06 1.83191e-05 1.35508e-05 
83 1 1.31555 8.50759 15.8288 0.445647 -2.14223 -0.605672 -1.64412e-05 -1.35599e-05 -1.27018e-06 
84 1 44.1096 4.85436 54.0262 2.43146 -1.28647 0.998611 -4.46267e-07 -5.96136e-06 -1.39635e-06 
85 2 17.4586 20.619 36.6334 0.465977 0.476242 1.96817 -2.1784e-06 1.34462e-05 5.01688e-06 
86 1 33.3767 3.99102 54.0994 0.0760249 -0.534986 -3.75987 -1.70823e-05 1.99173e-06 -1.54509e-05 
87 2 33.367 1.23031 38.7823 -0.446588 -1.68455 -0.611465 8.23674e-06 3.32294e-05 2.81062e-06 
88 1 45.0201 7.05771 14.4183 0.0857639 -1.10916 0.903723 -1.02615e-05 -2.25909e-05 1.50441e-06 
89 2 44.3161 35.7451 36.6379 -0.872489 -0.268404 -1.80964 -7.20952e-06 0.000349244 0.000120074 
90 2 16.7865 42.3551 52.5285 -0.733021 2.03976 -0.157711 -4.75034e-06 -1.78072e-05 1.29932e-06 
91 2 29.6306 26.025 24.0754 -0.249082 -2.0939 -1.4005 4.42158e-06 4.22987e-05 -9.32836e-06 
92 2 55.3194 18.1077 11.0125 -0.0672253 -1.19489 0.288327 -8.40091e-06 -1.97436e-05 4.61494e-06 
93 1 3.90461 24.106 51.9533 -1.56176 -0.923335 -0.864318 1.69134e-05 -2.267e-05 2.82567e-05 
94 1 31.8948 34.6997 47.5142 -1.21594 3.73818 0.981866 7.50473e-06 -4.80271e-06 -1.28366e-05 
95 1 23.0151 13.4898 21.3694 -0.264135 -2.38763 -3.98152 8.55604e-06 8.72126e-06 1.48683e-05 
96 2 14.0737 16.9569 36.7283 2.56776 -2.87027 0.572353 -3.37325e-07 -4.70636e-07 -2.88087e-06 
97 1 48.2404 14.1499 20.8847 -2.80387 1.71846 -1.96059 -2.5438e-05 -1.8103e-05 -3.46468e-06 
98 2 3.88813 5.95919 7.10401 1.23422 -0.306077 -0.431638 -4.28272e-06 6.46446e-07 2.41039e-05 
99 2 54.5856 9.91452 9.56649 1.75643 -0.525485 1.15774 -2.06327e-07 -1.31332e-05 -6.17759e-06 
100 2 22.01 26.4797 19.8596 -1.15892 -0.861033 -0.76489 1.16834e-05 1.05722e-06 -9.18382e-08 
101 2 46.991 32.1144 19.57 -0.0623581 -0.684803 -1.79414 4.14878e-07 2.07123e-05 -3.08327e-06 
102 2 4.32524 27.0876 31.9979 0.782322 0.623559 -1.39967 1.4986e-05 -1.42398e-05 -2.60761e-07 
103 1 33.022 34.2275 4.30065 -0.500593 -0.386079 -2.61973 1.00385e-06 2.2004e-05 -1.77519e-05 
104 1 20.1685 17.1519 15.2812 -1.91131 0.625166 -2.1922 -7.83182e-06 1.78881e-05 -2.98791e-06 
105 2 51.5928 18.9878 19.0765 2.01062 1.2707 0.395931 -1.27978e-05 -2.28364e-05 -5.42074e-06 
106 2 51.3194 29.5634 3.86164 0.348155 -0.0824007 -0.0280514 -4.79989e-06 -3.77585e-06 1.4452e-05 
107 1 28.362 22.1702 27.6709 -1.05633 -2.93608 2.49719 1.55836e-05 1.45551e-05 -8.14506e-06 
108 2 31.028 50.3376 3.60995 0.520718 -2.32983 2.31152 -7.764e-06 1.05731e-05 4.37121e-06 
109 2 11.3385 28.1526 25.6089 2.43463 -0.98707 -0.267829 3.96256e-06 -1.57878e-05 -6.27053e-06 
110 2 1.67665 50.2018 25.2301 -2.4369 1.22212 0.0376558 5.37371e-06 -2.18748e-05 -1.64862e-05 
111 1 43.0939 20.9123 51.3583 -0.286031 0.468204 -1.74238 1.35266e-05 -3.40773e-06 7.9941e-06 
112 2 48.3166 9.69964 33.549 -0.132845 1.47593 -0.158661 -2.21567e-05 -1.21356e-05 -1.72217e-05 
113 1 11.312 38.4248 24.0923 1.39711 -0.581312 2.37966 1.74161e-05 -1.44117e-05 2.52622e-06 
114 1 20.8651 28.6812 46.7603 -0.27193 3.17418 -1.75651 -5.87875e-07 6.21149e-06 5.80061e-06 
115 2 18.813 10.828 31.2379 0.645001 0.0601123 0.657853 -2.85226e-05 1.69035e-06 -1.22515e-06 
116 2 18.5503 30.2698 17.9869 2.41217 0.507783 1.04067 1.36779e-05 9.59584e-06 1.96118e-05 
117 1 8.06044 46.4016 24.5891 -1.37423 -0.975496 2.35191 1.35361e-05 -1.29132e-06 1.4827e-05 
118 2 3.05379 33.169 41.165 2.57108 0.715456 0.553066 6.72184e-06 -7.62527e-06 -1.49673e-05 
119 2 50.09 17.7719 15.1881 0.479292 0.819303 -0.959548 -1.68569e-05 -2.55785e-05 3.23521e-06 
120 2 52.7659 18.4247 24.4007 -0.0291329 -0.855302 -1.0224 -1.68159e-05 -9.17641e-06 -8.65447e-06 
121 1 13.4752 20.7133 44.3151 0.77016 -2.44699 -2.14722 -7.98087e-06 2.44829e-06 2.85321e-06 
122 2 2.63009 40.0074 41.1847 0.989855 -0.437476 -1.84999 1.78774e-05 -5.71502e-06 6.35927e-05 
123 2 16.5008 21.713 34.1032 1.47355 1.18747 -1.12272 7.15278e-06 5.04546e-06 1.91552e-05 
124 2 19.1131 1.71414 24.0351 -1.51122 0.658394 1.68272 -9.82373e-06 1.60446e-05 6.86644e-06 
125 1 47.8632 54.5311 40.7566 1.3677 1.87363 -2.03146 -3.81041e-05 1.04185e-05 -3.59933e-06 
126 1 55.0902 47.5013 12.3898 -0.631761 0.465097 -2.90717 3.55185e-05 -7.0614e-06 9.52723e-06 
127 2 9.61776 21.7846 38.6555 0.17113 -0.849236 -2.81672 -1.29441e-05 -8.06911e-06 -2.04942e-06 
128 2 16.6434 46.6123 7.67583 -0.720375 0.225109 2.64287 4.18042e-07 9.95282e-06 -9.39906e-06 
129 2 29.3067 1.3334 41.6613 -2.8453 0.831973 -0.452696 -1.76666e-05 -5.36973e-06 8.09665e-07 
130 2 28.7297 24.7784 52.8946 0.622491 -0.684447 0.597901 1.54139e-05 1.35727e-06 3.47915e-06 
131 2 31.2157 52.2149 53.6705 0.344093 -1.46991 -1.71463 -2.69846e-05 -2.8497e-06 2.10788e-05 
132 2 23.9895 6.7143 43.9805 -0.887078 -0.267269 -0.133581 8.54577e-06 9.67823e-06 -4.81119e-06 
133 1 34.7112 18.1696 15.3531 3.89168 -1.18389 -1.83951 -4.07105e-06 1.49105e-05 1.48246e-05 
134 2 44.347 2.2373 46.7984 0.985002 -0.300732 0.354089 -2.79058e-05 3.14583e-05 5.67873e-06 
135 2 49.6776 27.3122 49.5317 -1.17906 1.98815 1.3372 1.53092e-05 7.86884e-06 1.05423e-05 
136 2 31.3192 25.0525 4.39185 -1.31686 -0.569021 -0.00576957 1.61775e-05 -7.3084e-06 2.08096e-05 
137 1 16.9547 6.72084 36.9396 -0.498934 -0.61486 -2.43656 -5.83847e-06 2.42671e-06 2.82558e-06 
138 2 52.6076 15.6332 6.65535 -1.98465 -0.938394 -0.3501 -3.38593e-06 2.33795e-06 3.14851e-06 
139 1 34.1347 22.1497 43.0854 0.12996 0.881691 1.32184 1.77157e-05 2.2466e-05 -1.29996e-05 
140 1 5.02829 53.4935 3.37188 -2.26184 0.551327 -0.022321 7.32004e-06 4.55532e-06 8.78075e-06 
141 1 44.7481 12.953 44.8656 2.72391 -2.07055 3.05543 2.79836e-06 -2.64775e-05 -1.589e-05 
142 2 1.20857 36.2721 52.3829 -0.0915662 2.20108 -0.81291 2.04547e-05 1.49781e-05 -1.63336e-05 
143 1 8.25921 41.0854 34.8065 3.08695 3.95993 2.33521 3.83781e-05 6.36646e-06 -6.66101e-06 
144 2 54.4021 6.50863 3.93694 1.35248 -2.38489 -2.13392 7.37398e-07 -2.81406e-06 -2.75422e-06 
145 1 31.9749 13.5694 48.6477 1.6979 -1.52889 4.94549 1.02378e-05 1.03325e-05 -4.88822e-06 
146 1 27.9865 39.8309 22.9693 0.020917 3.91351 -1.25364 -2.19037e-05 3.55155e-05 3.00736e-05 
147 1 20.64 22.25 14.4524 -0.111649 1.31137 -0.443877 2.48969e-07 -7.58776e-06 6.4809e-06 
148 2 55.0226 10.3677 54.485 0.969834 -0.945729 -1.08115 -1.58294e-06 -3.84462e-07 2.14298e-06 
149 1 14.2097 54.7975 43.2046 2.57196 -3.44418 1.22691 -3.43273e-06 9.58923e-06 -2.04801e-06 
150 2 54.1741 14.7512 20.0561 -2.91985 -0.708266 -1.95254 -9.79324e-06 -2.01426e-05 -1.05948e-05 
151 2 11.6916 45.611 2.64043 -0.642253 -0.490534 2.53391 -1.58201e-06 1.33021e-06 -1.56336e-05 
152 2 40.6356 54.1375 5.25079 1.178 -0.465466 1.81861 6.03996e-05 -2.55642e-05 2.78373e-05 
153 2 13.4669 50.2125 12.4518 0.27662 -0.173073 -0.65859 1.49242e-05 8.30567e-06 3.74026e-06 
154 1 6.99015 35.6176 19.5224 3.91032 -5.81613 -3.61631 3.61643e-05 -2.32739e-05 2.22632e-05 
155 2 28.3485 33.692 13.7407 -1.52505 0.730208 0.396348 1.34477e-06 2.58314e-05 6.27235e-06 
156 2 22.0329 11.3164 49.2992 -0.418371 -0.701254 -0.625839 -1.56193e-05 6.77435e-06 -2.12787e-06 
157 1 7.43039 18.9197 35.9797 2.93951 -2.78949 -1.33109 -3.78187e-06 4.54165e-06 -1.10677e-05 
158 2 52.6349 38.5075 42.0879 2.09794 1.80696 2.00485 1.42065e-06 -5.83107e-05 -9.81962e-06 
159 2 54.3018 24.6899 35.9407 0.916792 -1.41186 0.401857 1.52567e-05 -2.68581e-05 -2.56518e-06 
160 2 5.11403 53.3015 26.2957 -0.141703 -1.57562 0.352905 -1.50158e-06 -1.52551e-05 -1.22661e-05 
161 2 13.2647 28.7446 46.7895 -1.82319 0.843559 -0.353907 -5.54112e-06 -4.30519e-06 2.91114e-06 
162 2 45.7021 52.0939 51.4008 -1.04931 0.850787 -2.9034 -1.85793e-05 5.08213e-06 -2.97059e-05 
163 1 8.3297 36.8371 49.3136 -0.0456778 0.217531 0.118605 3.82047e-07 -8.03739e-06 -3.6162e-06 
164 2 34.7715 44.9848 51.2612 2.01091 -0.953442 -0.806526 7.78525e-05 -5.32592e-05 3.25288e-07 
165 1 11.2528 10.4652 9.69815 -0.638169 0.890246 -0.491485 -4.15366e-06 1.78085e-05 -1.47194e-05 
166 1 47.0868 27.4316 45.9069 1.36459 0.595788 -1.3189 9.46618e-06 -2.90423e-06 4.49174e-06 
167 2 55.6417 24.2904 52.0427 -2.00234 2.92234 -0.388563 -5.78091e-06 -2.2634e-05 -2.08857e-05 
168 2 17.7261 31.605 46.74 0.296578 1.56403 -0.625414 1.11357e-05 -3.25142e-05 -6.7262e-06 
169 1 30.9933 35.984 7.51801 0.175004 -3.59795 2.92486 1.13469e-05 -1.74737e-06 5.37221e-06 
170 1 45.0303 2.3827 24.4883 -4.18348 0.476945 -1.31696 -1.66636e-05 -1.97528e-05 1.1555e-05 
171 1 41.5489 11.0145 17.8145 0.840033 4.55606 0.872744 -1.63638e-05 -1.42569e-05 -2.3021e-06 
172 2 34.1129 26.9538 25.3467 -0.35851 -0.0545246 -0.414817 1.14118e-05 2.13689e-05 -9.81538e-06 
173 1 37.0181 6.27986 26.3229 1.05373 0.29249 1.21468 -8.55177e-06 -8.88716e-06 -8.65107e-06 
174 1 45.7933 47.7201 10.4309 -4.6723 -1.68576 1.17842 2.25527e-06 2.20499e-05 -3.167e-05 
175 1 4.82905 25.9094 7.04654 1.34133 3.06855 -3.55484 -2.13972e-05 -2.65084e-06 1.45934e-05 
176 2 46.5867 20.8147 46.8069 -0.843519 0.734976 0.361084 1.46474e-05 8.37212e-08 1.47554e-05 
177 1 40.4005 48.4081 17.6421 -1.70863 2.2572 1.50593 3.58295e-05 1.04125e-05 -1.95188e-05 
178 2 6.76841 26.1156 53.3393 -0.112991 0.0785917 -0.320823 -1.21874e-05 1.58306e-05 2.54286e-05 
179 2 33.2706 49.9242 27.6961 -1.16856 -0.177207 0.326009 -1.47553e-06 3.36476e-05 1.48054e-05 
180 2 12.8773 29.2371 31.6199 -0.419904 -1.28322 0.37376 1.70279e-05 -7.03714e-06 7.88435e-06 
181 2 55.6707 22.4136 22.0294 0.427607 -3.65707 0.522287 -4.41564e-05 -2.40402e-05 -3.50396e-05 
182 1 26.042 31.2484 34.2407 2.08106 -0.756339 2.88291 5.15572e-06 -3.68108e-06 -2.08746e-07 
183 2 30.2103 38.7209 22.99 -0.262581 2.11507 -2.7471 1.86739e-05 2.48527e-05 1.05191e-05 
184 2 25.3629 21.5454 41.3412 -0.935416 1.39169 0.350001 2.04838e-05 6.44678e-06 4.66292e-06 
185 1 12.2857 46.9815 39.5803 -1.38481 1.60813 -0.8307 2.57834e-07 -1.24425e-06 8.48605e-06 
186 1 33.5736 33.3141 40.6124 -2.19028 -4.992 0.00528508 -4.15177e-06 -1.79182e-06 -3.87198e-06 
187 1 29.4073 8.63335 10.3003 -2.80421 0.205183 -2.51659 6.34758e-06 1.52727e-05 -1.24582e-05 
188 1 35.2881 40.1645 32.6086 -1.22562 3.70362 0.292896 3.0648e-05 1.1544e-06 7.60489e-06 
189 1 3.09422 27.9245 44.5351 1.3792 2.31382 -0.257821 1.69691e-06 -9.4906e-06 -9.0527e-07 
190 2 38.049 15.1494 8.3872 -1.01809 1.35263 -0.813208 9.66657e-06 9.7168e-06 7.48985e-06 
191 1 38.7626 32.7986 23.666 0.0359426 2.45822 -3.42784 2.95369e-05 2.26832e-05 7.70312e-06 
192 1 2.94602 25.0826 49.9903 -0.380887 -1.33913 0.456776 -2.54657e-06 -9.82988e-06 -1.96765e-05 
193 2 10.0475 5.41957 16.2424 -0.700005 0.199097 3.06787 -1.07525e-05 4.81334e-06 -1.84663e-05 
194 2 18.0502 49.6692 46.2362 -0.551454 -1.60198 -1.2723 -7.6817e-06 -1.01884e-05 9.96224e-06 
195 1 16.9703 11.9398 41.2707 -3.26011 0.921111 1.35316 5.40094e-06 1.63916e-05 3.17648e-06 
196 1 34.3922 18.4049 41.2582 -2.07534 0.960315 -2.29653 8.81227e-06 6.8698e-06 -1.06444e-06 
197 2 46.8152 44.6071 52.2773 0.874425 1.34728 -1.62463 3.78441e-06 -1.28495e-05 3.47366e-06 
198 1 31.2765 36.0611 23.7363 -0.926863 -2.1189 2.73238 1.5859e-05 4.31361e-05 -2.1044e-05 
199 2 52.1726 37.7484 5.31807 -1.29932 1.06113 -0.61786 -1.297e-06 4.04184e-05 -8.01558e-06 
200 1 5.20457 18.5403 48.5649 1.91264 2.48581 1.87179 -3.28638e-05 1.50647e-05 8.4438e-07 
201 1 5.14661 27.1017 35.8214 0.88493 1.93455 -2.18935 4.75907e-06 -5.25746e-06 5.21154e-07 
202 1 32.6028 4.27205 42.9333 -1.29318 1.57983 -2.11337 -2.41843e-06 7.10771e-06 -3.27089e-06 
203 1 16.6156 18.3301 44.06 0.0398603 -2.47864 -4.93881 5.11623e-06 8.93666e-06 1.802e-06 
204 2 39.1748 26.6109 33.6486 -0.929438 0.169181 0.307089 1.29809e-05 1.66813e-05 -1.35639e-05 
205 2 26.5488 34.2534 18.5881 2.13593 -1.62647 1.73205 -5.56893e-07 2.77036e-05 1.73531e-05 
206 2 24.6701 34.2076 43.8771 2.45542 -1.42962 -0.324754 6.53708e-06 -9.28604e-06 5.81084e-07 
207 2 6.59263 55.0345 32.6818 -0.792891 1.00277 1.2753 5.05011e-06 3.26608e-06 -1.41264e-06 
208 1 16.1884 51.0747 25.9131 -2.072 -1.10495 2.13591 6.04606e-06 7.98666e-06 1.03585e-05 
209 1 38.9055 20.6363 2.40506 -5.57782 1.22508 -0.85384 1.14795e-05 1.66331e-05 5.72694e-06 
210 2 43.2395 9.33077 18.897 -0.837912 -0.123542 -1.0068 -1.16794e-05 -1.23031e-05 4.07704e-07 
211 1 6.7731 37.0463 29.1343 1.44442 -0.934462 4.4244 2.87717e-05 -2.86683e-05 2.15274e-05 
212 1 38.5485 17.8322 30.4616 3.10213 1.62177 0.516359 7.55881e-06 -8.97317e-07 -1.74769e-05 
213 2 32.8168 3.69485 45.4796 -0.830065 -2.19554 -0.0319784 8.52496e-06 -2.25804e-05 -4.0114e-06 
214 2 38.2312 37.845 35.9563 -0.716725 -0.476472 3.07871 -4.77776e-06 8.64307e-06 -1.29572e-05 
215 1 3.19786 41.9745 34.9141 0.295544 1.65002 -0.556693 1.70758e-06 -1.77417e-05 1.274e-05 
216 2 4.03591 19.1893 22.761 1.41763 2.98632 -1.03379 1.19557e-05 1.85697e-05 2.15553e-05 
217 1 40.9429 1.69831 11.6845 2.99966 2.39186 1.72188 -1.29304e-05 -2.07754e-06 -1.77137e-05 
218 2 52.4901 33.6201 23.1374 -1.47243 -1.36825 1.10628 4.62358e-05 -1.84399e-05 2.82679e-05 
219 2 39.3656 31.8963 52.2764 0.11245 -0.170026 1.75888 4.19579e-05 2.23003e-05 3.1302e-05 
220 1 47.7735 52.3555 35.7143 3.74855 3.15368 0.408855 1.52458e-06 -3.12618e-05 -5.47657e-06 
221 2 52.9669 45.5658 4.37428 1.454 2.03592 -1.56097 2.05881e-06 6.52627e-06 7.9346e-06 
222 2 38.9128 6.60869 20.3106 1.50813 -1.17869 -0.680369 5.13226e-06 -2.01415e-05 4.74838e-06 
223 2 20.4223 13.2846 47.632 -1.32806 -0.175473 -0.758383 -1.73476e-05 1.28339e-05 1.6028e-06 
224 1 24.471 22.803 20.8237 2.3091 -1.1334 0.315324 2.17805e-05 1.34568e-05 1.76192e-06 
225 2 43.5641 41.4765 11.9722 -0.352303 1.94165 0.237505 -2.07682e-05 9.38183e-06 1.81376e-05 
226 1 55.6971 54.8077 17.4701 0.426875 -3.81492 0.135097 1.06369e-05 -1.31052e-05 7.58242e-06 
227 2 15.6975 4.1507 4.16169 -0.385768 0.873831 0.369471 -2.05549e-05 3.21746e-05 -3.02412e-06 
228 2 36.5373 34.3358 37.7289 0.538166 0.981068 -0.385187 9.91913e-06 1.26529e-05 2.00421e-05 
229 2 44.3715 52.3812 2.37269 -1.50112 0.575212 0.168204 -1.0773e-05 -4.29558e-08 -1.37572e-05 
230 1 19.3253 32.5491 18.8373 -1.12963 1.11707 0.620307 1.21171e-05 -1.36669e-05 -3.46567e-06 
231 2 33.0349 45.1436 43.4267 0.671636 -0.590338 -0.660869 -9.65984e-07 -4.94227e-05 3.75451e-06 
232 2 51.7711 12.1206 12.4261 0.188905 0.0372105 -0.453044 -1.57612e-05 -2.42694e-06 2.71625e-06 
233 2 51.4127 7.2727 52.3556 -3.11107 -0.761511 1.25394 -3.82052e-06 1.65225e-05 9.27953e-06 
234 2 15.96 24.4912 54.5634 0.193483 -0.203229 1.37961 1.77263e-05 -4.2491e-06 -1.25178e-05 
235 1 22.7073 31.7267 42.8351 -2.18569 -0.722124 1.40721 1.5895e-05 -6.83124e-06 1.00211e-05 
236 1 15.9161 54.0315 22.631 -0.501232 -1.52834 5.73125 -7.7002e-06 1.44791e-05 -4.485e-06 
237 2 55.7244 54.8389 49.9968 0.553889 -1.17452 0.29428 1.98513e-05 -1.51935e-05 -2.37379e-05 
238 1 14.9176 23.936 34.0354 -1.66084 0.0982217 -0.173263 2.37304e-05 1.35773e-06 2.61177e-06 
239 1 50.1581 8.03538 23.7567 -1.08489 -2.13885 3.99369 -1.20982e-05 -2.81797e-05 1.23461e-05 
240 2 24.6573 46.2412 26.8813 -0.44055 0.00418785 1.55814 -2.30994e-05 1.6977e-05 3.01651e-05 
241 2 48.871 9.96469 5.81112 -0.0689907 0.960692 0.300085 -9.98367e-06 -1.67776e-05 -1.57367e-05 
242 1 35.5659 12.3316 34.2391 -0.922617 -2.16506 -1.56343 4.45736e-06 9.45005e-06 -1.01757e-05 
243 2 41.2741 19.5985 53.7974 -3.198 -0.625695 0.814686 1.52584e-05 7.73624e-08 -5.3191e-06 
244 1 3.19686 1.94254 2.54428 -1.98902 0.128899 1.2996 -9.17841e-07 2.58174e-05 8.28249e-06 
245 2 54.8911 20.3107 20.4731 0.637259 -1.00631 -0.68893 -2.69118e-05 -5.13144e-06 1.02973e-05 
246 2 19.298 7.54249 39.2595 0.0969924 -1.59066 1.7517 4.23952e-06 1.00138e-05 1.45794e-05 
247 1 24.1181 4.19681 49.8085 0.74361 -0.327339 4.27591 -1.17732e-05 -2.15465e-06 -4.48614e-05 
248 1 29.1208 29.639 1.75015 5.20107 -1.87217 -1.53049 7.5894e-06 3.29225e-06 2.35109e-05 
249 2 27.4346 19.8599 37.8117 -0.489735 1.60239 1.64727 -5.07737e-07 1.40227e-05 -8.16291e-06 
250 2 40.4993 38.3214 10.7378 -0.825136 0.969998 -0.677288 2.90055e-06 2.05705e-05 1.38435e-05 
251 1 17.656 1.21149 47.2082 -3.23731 -0.0313584 -2.46571 -2.88867e-06 4.22736e-06 -6.46887e-06 
252 2 32.449 16.3083 19.8118 -1.66514 -1.08556 -2.93472 -1.05832e-05 -4.49606e-05 -1.4985e-06 
253 1 36.0201 27.2359 30.6386 -0.195889 5.73524 0.152361 9.89529e-07 1.99544e-05 -1.08091e-05 
254 2 29.5392 30.952 14.6808 -0.36968 -0.123995 0.164366 2.32415e-05 1.20781e-05 1.35751e-05 
255 2 30.2312 13.8335 8.46598 2.52389 0.0514771 -0.914396 1.80475e-05 -2.75259e-05 -1.01654e-06 
256 1 53.0838 16.3571 51.9498 -4.452 -0.192375 -3.1705 -1.69954e-05 -2.07054e-05 -1.61278e-05 
257 1 49.0986 26.0106 51.7303 -0.241178 -1.0831 -1.83411 2.60719e-06 1.01719e-07 -5.31008e-06 
258 2 4.02592 8.7367 7.8298 1.36253 1.46525 0.431289 1.22302e-05 -1.71487e-05 -1.03342e-05 
259 2 54.139 3.38467 47.1727 0.987392 0.212223 -0.373468 -2.43722e-05 -3.74086e-06 1.30985e-05 
260 1 33.6701 40.92 11.1105 0.690233 2.01496 0.524168 1.21445e-06 3.68608e-05 1.5403e-05 
261 1 11.961 6.93168 37.9868 0.532919 -0.0815744 0.512549 -1.75493e-05 6.77211e-06 -2.05407e-05 
262 1 31.863 18.7694 9.9259 0.0284711 1.97232 2.66724 7.70473e-06 1.09398e-05 2.61977e-06 
263 2 16.151 18.0437 52.4456 -0.0128343 -1.08485 -1.48186 3.22234e-06 4.26407e-07 2.50406e-06 
264 2 4.95542 26.8897 42.8412 -1.04612 -1.58424 0.837804 2.76739e-06 -7.72488e-06 8.28434e-07 
265 1 5.91205 42.5515 45.3765 5.18499 2.73401 1.6215 2.25341e-05 5.33925e-06 2.07569e-06 
266 1 36.7509 28.4781 49.2564 0.15899 -2.19185 2.83654 -1.99017e-06 5.15455e-06 1.57638e-05 
267 2 15.9279 15.4916 38.2915 1.15028 0.456408 1.00235 -3.79234e-07 9.35813e-07 -1.1124e-06 
268 2 10.3064 52.9201 43.4997 -1.28559 -0.927001 0.932007 -3.97905e-07 -1.44484e-06 -7.48146e-06 
269 1 33.3348 36.1791 6.754 -2.80215 -1.38964 -1.93674 1.51665e-05 2.48012e-05 2.16896e-05 
270 2 12.1328 35.0347 6.8948 -0.738591 -0.124888 -0.926289 1.41084e-05 -1.42111e-05 2.62236e-06 
271 1 15.3373 36.5244 27.1511 -3.17526 1.14887 0.55794 1.41797e-05 -4.50731e-06 1.34028e-06 
272 1 19.8366 11.2569 27.1492 -0.483744 -2.43249 -1.42038 6.8685e-06 4.80565e-06 7.92389e-06 
273 2 47.9243 27.8613 21.1081 -1.98771 1.14647 -0.581587 2.78593e-06 1.03738e-05 -2.3086e-05 
274 1 31.781 20.6153 22.2114 0.545029 -3.71636 -0.319273 1.22058e-05 -1.02363e-05 -1.85745e-05 
275 2 4.81424 26.0695 29.0462 0.473385 1.68348 -0.559451 -5.84926e-07 -1.47386e-05 1.21952e-06 
276 2 44.9017 53.4003 31.7946 -0.690707 0.215499 -0.387295 8.46832e-06 -6.2857e-05 1.40626e-06 
277 1 11.4379 50.6152 38.6857 0.164337 0.822114 2.13862 -1.06911e-05 1.3445e-05 3.83788e-06 
278 1 49.5924 41.6243 24.6761 1.19563 3.0341 1.62888 1.57347e-05 -1.87788e-05 1.90453e-06 
279 2 3.10933 17.7207 50.2974 -0.00533874 1.25645 1.47304 -2.75108e-05 5.68617e-06 -2.06805e-05 
280 2 32.9012 4.6174 51.5389 -0.716241 -2.26068 2.26858 -1.19982e-05 2.34233e-05 -2.99121e-06 
281 2 11.743 12.8765 10.5904 -0.422195 0.112241 0.775251 -1.34671e-05 3.31911e-06 -1.06358e-05 
282 2 22.7169 38.7194 7.64987 2.23411 0.979853 1.04678 -8.46355e-06 -1.78257e-05 -4.92121e-06 
283 2 13.42 51.6202 35.1267 -0.691102 -1.87411 0.477954 -6.92462e-06 1.15613e-05 2.48543e-07 
284 2 22.3344 17.0593 24.5857 -0.178746 -1.04104 -1.11583 2.39251e-05 1.58746e-05 -9.63158e-06 
285 2 12.0504 15.8922 10.7161 -0.323644 -0.411669 -0.464188 -9.42791e-06 1.01018e-05 1.25565e-05 
286 2 6.93977 13.6774 7.2765 -0.85447 -0.853621 1.06302 3.29679e-06 -1.20621e-06 9.83276e-06 
287 2 41.9128 35.0455 13.4085 -1.12083 -0.31968 1.19393 3.43039e-05 2.11604e-05 -9.18855e-06 
288 1 11.9235 49.5099 1.91274 -1.07716 2.32611 0.720892 7.69e-06 -3.76278e-06 -3.76822e-06 
289 2 28.6574 20.693 32.0154 1.35284 -0.0622634 -0.750866 1.19158e-05 -5.9602e-06 -3.38803e-05 
290 1 36.6404 38.0428 13.7441 -0.570379 4.3751 -1.95928 8.162e-06 3.27271e-05 1.16976e-05 
291 2 46.7698 30.0147 52.4639 -0.272349 1.18899 1.73952 1.48595e-05 -6.27853e-06 8.25667e-06 
292 1 40.6908 3.98376 48.7667 -0.164007 -0.360983 2.93738 -1.13672e-05 -1.3209e-05 2.63023e-06 
293 2 23.1491 23.7688 13.9745 -1.36278 0.28351 2.16227 1.86967e-05 1.68106e-06 -5.74885e-06 
294 2 34.5222 19.6335 17.59 -1.9219 -2.26675 -1.83449 1.60962e-06 1.60149e-05 -1.63461e-05 
295 1 49.6817 6.97225 17.0612 2.92447 1.83147 -5.51271 -2.33418e-05 -1.86741e-05 3.70649e-06 
296 2 55.2832 53.8205 14.9894 -2.08622 0.710105 1.53544 7.04359e-06 -8.80684e-06 1.17446e-05 
297 1 44.0531 13.554 26.685 0.118398 -1.24685 -2.58504 -2.53639e-05 -1.71271e-05 3.33422e-06 
298 1 12.6523 16.8354 40.5807 -5.56071 -1.27622 2.25424 3.30616e-06 3.17436e-06 -3.44387e-06 
299 1 12.7182 17.7142 43.6516 0.799098 1.8585 -1.07958 2.051e-06 1.07476e-06 -1.45568e-07 
300 1 13.215 24.2514 23.8527 -3.65087 -5.79968 1.73757 9.26363e-07 -1.11724e-05 -6.76571e-07 
301 1 40.8257 37.9618 36.5572 -1.64567 -3.23785 3.93116 1.45e-05 -5.91828e-06 -1.09912e-05 
302 1 17.0657 11.6863 33.2018 3.43988 1.08517 -1.92743 4.83929e-06 9.70133e-06 -6.54924e-06 
303 2 16.4153 12.8977 16.5058 -0.770798 -0.415436 0.623259 1.52618e-07 -7.42327e-06 3.17315e-06 
304 2 22.1847 36.8281 33.4842 0.42337 -1.20541 -1.35122 2.51843e-05 1.04549e-05 3.54991e-05 
305 2 32.821 12.2354 24.5998 0.288993 0.578622 0.128795 -8.02886e-06 -2.34634e-05 -1.25483e-05 
306 2 49.9344 12.0098 43.5024 0.991242 0.471336 -0.250358 -1.48821e-05 -1.97688e-05 -1.79653e-05 
307 1 51.3744 53.275 6.07026 3.8091 1.7627 -3.19737 -6.98726e-06 8.72164e-06 -1.74024e-05 
308 1 45.8553 44.0153 49.5181 1.42639 -0.772789 2.48088 -1.3873e-05 -9.52176e-06 4.23172e-07 
309 2 39.901 6.28395 37.9296 0.470266 -0.863702 3.25436 -2.80905e-05 -5.12642e-06 5.28064e-06 
310 2 11.4573 42.3275 37.6579 0.529582 0.723788 -0.584256 -1.01668e-06 4.86543e-06 6.38337e-06 
311 1 14.2876 3.64453 23.1328 -0.302369 2.57006 0.283496 -1.97773e-05 1.04281e-05 -5.37819e-06 
312 1 4.32325 6.32488 34.8574 -4.98368 -1.43971 1.13262 -1.21143e-06 -2.51036e-06 -2.03219e-05 
313 2 33.6116 24.3965 16.0469 -2.21077 0.177406 2.12203 1.51578e-05 2.7704e-05 1.67318e-06 
314 1 3.11143 44.5911 11.2698 2.11603 0.111139 0.867064 3.10341e-05 5.8053e-06 -1.53672e-05 
315 1 21.7641 27.0344 25.3355 -0.376906 1.62277 1.42258 1.97527e-05 1.83275e-05 -6.49099e-06 
316 1 11.7114 34.6044 3.9064 1.53321 -1.69992 0.835129 7.45209e-06 -6.71215e-06 3.59602e-06 