ITEM: TIMESTEP
21151
ITEM: NUMBER OF ATOMS
11664
ITEM: BOX BOUNDS pp pp pp
0.262836 56.7042
0.262836 56.7042
0.262836 56.7042
ITEM: ATOMS id type x y z vx vy vz fx fy fz 
1 2 2.8741 50.626 48.4941 -0.101696 0.862861 0.168773 -1.04885e-05 7.84702e-06 -2.55414e-05 
2 1 47.8989 38.1255 32.7195 -4.24049 3.38801 -0.507779 -1.63341e-07 8.45756e-06 1.10677e-05 
3 2 21.1851 36.3235 35.8911 0.992878 -0.333816 -1.36071 -1.84308e-06 7.64361e-06 1.76439e-05 
4 2 35.2378 34.2036 44.0492 -0.474439 -1.02438 0.769003 -1.35276e-05 2.52687e-05 4.15191e-05 
5 2 46.7724 5.55526 17.3327 1.24653 -0.91387 -1.4627 -2.03339e-05 -5.30647e-07 2.10765e-06 
6 2 6.46991 11.1 30.7923 -0.333758 -2.98734 -0.903358 9.67299e-06 -1.08931e-05 -4.68938e-05 
7 1 39.7714 37.1889 52.8587 2.7938 0.93031 -1.06338 9.07175e-07 3.05391e-06 4.59181e-06 
8 2 24.2626 6.11772 10.9876 0.397716 0.384977 -1.13673 -7.64474e-06 -4.86622e-05 -2.17831e-05 
9 2 26.9989 26.5162 21.6505 0.032076 -0.925793 1.07434 9.08169e-06 -1.90234e-05 4.39687e-05 
10 1 8.20038 36.1058 26.6765 0.242396 1.44789 -2.43746 -8.974e-06 -1.04666e-05 2.82245e-05 
11 2 39.4381 35.3243 6.21316 2.42405 0.873943 -1.3648 2.61836e-05 -5.80642e-06 1.03277e-05 
12 1 41.0146 19.5679 17.5772 -0.317909 -0.680811 0.563041 4.31367e-06 -1.64817e-05 2.38956e-05 
13 1 25.029 40.8221 24.486 -2.52316 -0.60673 2.22633 1.30946e-05 -2.40649e-05 7.79162e-06 
14 2 4.56296 18.4971 42.7603 1.1945 0.921196 0.109038 2.8419e-05 -1.81106e-05 -2.90108e-05 
15 2 8.5731 53.6948 6.44941 0.355429 1.08874 0.969814 3.6236e-06 5.04285e-06 -1.70315e-05 
16 2 9.04466 8.15369 53.5319 0.222475 -0.92126 -1.00423 -8.45807e-06 -7.91617e-06 9.28031e-06 
17 1 5.75976 30.4034 50.2054 0.841026 -1.79919 0.409166 3.9431e-06 7.11869e-05 3.13126e-05 
18 2 3.68704 35.6559 8.30165 -1.20943 -0.854306 -0.234419 8.02507e-06 1.77548e-05 1.07334e-06 
19 1 8.33673 45.895 44.0928 -2.13061 5.36288 2.12125 -3.22841e-05 -1.35075e-06 -2.21683e-05 
20 1 23.7703 45.6764 1.2589 -6.66238 -0.381259 1.6913 -7.85555e-06 1.99296e-05 -1.23823e-05 
21 2 41.6651 55.0346 43.0688 -2.66131 0.930456 0.319363 -7.49494e-05 2.4431e-05 1.7002e-05 
22 2 38.085 25.3758 17.4147 -0.763346 -0.62684 -1.70383 -8.09852e-07 -1.71487e-05 4.14323e-05 
23 2 16.3604 43.6727 3.97593 0.623471 -0.89752 -0.648149 3.90389e-05 -6.39246e-06 -1.5285e-06 
24 1 44.5239 49.531 6.25354 1.5048 -2.38985 1.60929 -1.49717e-05 1.22192e-05 -3.58102e-05 
25 2 54.5872 28.8718 25.1325 -0.977044 -1.45195 0.468379 1.46994e-05 -6.06798e-06 1.23343e-05 
26 2 22.7606 34.1091 39.445 -0.175445 0.210613 1.14367 -1.65244e-05 -2.83358e-05 1.37079e-05 
27 2 49.5032 9.33806 25.4248 1.37612 -1.41543 0.824567 -1.90106e-05 -2.29579e-06 8.07613e-06 
28 2 8.42302 10.8871 3.6777 1.8654 1.22021 1.54016 2.25774e-05 -1.69579e-05 -1.73456e-05 
29 2 24.9818 48.4919 28.2426 2.11558 -0.965965 1.39249 -3.89339e-06 -4.27545e-05 -2.13318e-05 
30 1 3.41809 26.5285 17.5725 0.800494 -3.28689 -1.00014 1.75904e-05 -6.4393e-06 9.79632e-06 
31 2 23.2183 45.2513 50.1047 -0.884067 0.826711 -2.15297 -1.59632e-05 3.15158e-06 -7.68197e-06 
32 2 33.9079 31.6511 7.64119 1.05186 1.39473 -0.399237 9.63053e-06 6.1452e-06 9.48109e-06 
33 1 51.2124 48.3917 22.6456 3.51688 -1.45929 0.150317 -1.23672e-05 1.12545e-06 -1.48997e-05 
34 2 17.877 44.8883 35.2566 -1.01359 0.791336 1.62085 1.92304e-05 -2.06138e-05 -6.65474e-06 
35 2 9.76307 34.3613 51.9705 -0.831782 1.39936 -0.61222 -4.13785e-05 -1.57476e-05 3.10339e-05 
36 2 33.2619 11.4373 25.8468 -1.80243 -0.897995 -0.164873 2.22863e-05 -1.33584e-06 2.50371e-05 
37 2 23.1881 42.9076 8.93782 -0.239034 1.54825 1.37638 -6.69749e-05 6.41291e-05 8.14652e-05 
38 2 51.6171 11.8913 35.2067 -0.523518 0.990633 -1.08696 5.49421e-07 1.72484e-06 2.92625e-06 
39 1 34.7272 38.3131 25.0478 3.55701 -1.63795 -1.51364 -2.52197e-06 -3.86079e-06 1.62358e-05 
40 2 53.9155 45.1781 23.9943 -0.0154194 0.700268 -0.627516 -2.25222e-06 -6.74972e-06 4.04132e-06 
41 2 24.9374 15.4671 54.2726 0.0677931 -0.707187 -0.265632 2.12376e-05 1.69497e-06 5.89845e-06 
42 2 31.855 7.89997 32.2832 -0.61959 0.129355 -0.0852263 1.03476e-05 1.7062e-05 -1.87913e-05 
43 2 53.9759 18.1093 15.0983 -0.721254 0.358749 1.50944 5.66809e-06 1.58513e-05 1.00531e-05 
44 2 0.332407 0.721768 51.6962 -0.380513 1.45987 -0.0584751 -1.35208e-05 3.05198e-05 -3.60926e-05 
45 1 43.7939 43.7073 55.7721 3.47968 0.202827 0.176179 -1.26417e-05 1.26386e-05 -2.56177e-06 
46 2 26.2701 5.44784 54.0609 2.72258 -2.18957 -1.55384 1.79258e-05 9.35665e-06 -2.69656e-05 
47 1 27.398 11.9597 39.5855 0.992471 0.411926 0.658096 8.02693e-06 3.77015e-06 2.06171e-05 
48 1 7.20598 4.85798 22.6967 -1.22899 -0.912106 2.93963 8.20838e-06 -1.69126e-05 -1.69557e-05 
49 1 44.4159 8.05094 11.4049 -0.698093 -2.51452 -0.686836 -1.33261e-05 -1.3076e-05 1.12948e-05 
50 2 51.6528 37.2544 6.9393 1.57632 -0.296881 0.287009 9.68886e-06 7.88096e-06 -2.06019e-07 
51 2 39.1508 21.5106 39.2993 1.15279 -0.0304882 -0.517623 1.79955e-05 1.46774e-05 3.5918e-05 
52 2 26.9714 28.2185 25.7026 -0.9231 1.00185 -1.29953 1.12102e-05 2.58839e-06 4.38718e-05 
53 1 36.7063 53.2717 15.6923 -2.04972 4.28543 0.816771 -3.36501e-06 -3.51122e-05 -2.82284e-05 
54 2 25.9961 10.2097 21.7182 0.118391 -0.342465 -1.03958 2.66975e-05 -2.26886e-05 -2.03779e-05 
55 2 32.7698 28.1629 34.1896 -0.843742 0.691135 -0.0847234 1.40328e-06 -7.9492e-06 6.28187e-05 
56 2 17.5543 8.07053 8.17662 -1.12212 -0.179421 1.58755 -7.70315e-08 -4.93715e-07 -3.68837e-06 
57 2 29.8775 11.7138 5.25704 0.509149 2.18992 -0.680079 1.06158e-05 2.36766e-06 1.481e-05 
58 2 31.3587 13.5685 12.3038 -0.0505515 1.88511 0.980671 -3.0056e-07 -4.07914e-05 1.8789e-05 
59 2 12.9399 17.2703 34.5477 -1.55512 0.14638 -0.378624 5.11972e-05 -1.67257e-05 1.47444e-05 
60 1 56.2169 30.5657 10.6742 -0.535587 1.59271 1.9714 1.98101e-05 -2.08381e-06 7.48596e-06 
61 2 52.7447 26.2481 31.813 -0.030695 -0.0489582 0.883403 8.14052e-06 2.08004e-05 3.55464e-05 
62 2 54.5489 51.669 35.4273 -1.31769 -1.06897 -0.871535 -2.39236e-05 1.31993e-05 -2.59649e-05 
63 2 18.7702 0.550509 50.6853 -1.56192 0.587781 -0.581584 -1.97759e-06 2.18818e-06 -3.26654e-05 
64 1 37.3815 13.7424 15.473 -1.93876 -0.109599 -1.81523 1.07209e-05 -1.15642e-05 5.48366e-06 
65 2 26.1637 36.6512 23.2998 2.419 0.279831 -1.09243 5.02393e-06 -8.05779e-05 1.64311e-05 
66 1 4.65572 51.96 20.0438 -0.176806 -0.00325552 -0.407061 -9.00114e-06 -4.11965e-06 -1.34718e-05 
67 1 22.6794 9.71502 40.7654 -1.2234 -0.683873 3.65951 1.22695e-05 -8.04911e-06 -3.3416e-06 
68 1 27.8598 16.6779 17.6555 -1.27404 1.03663 -1.34794 1.48007e-05 -1.93533e-05 1.69791e-05 
69 2 41.0645 34.4052 45.4382 0.369187 0.60112 0.735142 -6.47266e-06 5.81881e-06 3.40218e-05 
70 1 14.2763 8.69795 21.5694 -0.00910196 -1.16555 -3.53466 1.6954e-05 -1.9347e-05 -1.06521e-05 
71 2 6.63654 7.84947 26.1587 1.35716 -2.08843 0.85825 1.47735e-05 -2.21862e-05 -9.37559e-06 
72 1 1.51463 18.5505 53.8494 1.09108 2.03941 -0.998634 -4.86153e-06 -9.49501e-06 -4.43205e-06 
73 2 55.1515 24.3897 46.6924 0.275994 1.87811 -0.0526548 -6.82781e-06 9.12232e-06 7.67332e-06 
74 1 1.63259 40.9066 26.4428 -1.73221 -2.25365 -1.63747 1.66971e-07 -1.4348e-05 -4.24104e-06 
75 1 35.0371 18.3767 31.1735 -2.86989 -1.79663 0.332604 1.23543e-05 1.68689e-05 4.35647e-05 
76 2 42.8243 27.7447 28.5005 -1.02095 0.476864 0.886682 1.59331e-05 2.09735e-06 3.08605e-05 
77 2 22.2345 29.6195 54.8087 -2.04538 -0.608694 -1.90542 -1.77152e-05 1.49152e-05 3.9695e-05 
78 2 53.4375 53.6699 22.8493 1.19564 1.89362 -1.15981 -9.52772e-06 -1.36426e-05 -7.52008e-06 
79 2 25.2232 31.5511 15.1084 2.0502 1.90082 -0.66119 1.14649e-05 -1.31273e-05 7.05329e-06 
80 2 36.7554 40.0183 22.1274 -1.80748 -0.00478873 0.061151 -1.80928e-05 -2.30901e-05 1.97156e-05 
81 1 39.7133 30.9116 47.1845 -2.15235 -4.34735 2.12296 -9.99975e-06 2.28693e-05 2.82841e-05 
82 1 20.3208 6.72625 23.7997 1.04239 3.24607 0.333976 1.45676e-05 -1.16258e-05 -2.80162e-05 
83 1 32.7479 14.6204 7.04244 0.539124 -2.64413 -2.10585 -6.57082e-06 -2.35517e-06 3.66452e-05 
84 2 25.0522 38.1564 16.792 0.955017 -0.168633 -2.21135 1.75942e-05 -2.17926e-05 8.54968e-05 
85 2 2.77172 6.838 20.6547 -0.854496 -0.314432 -0.763901 2.05492e-07 -4.33893e-06 -8.44829e-06 
86 1 4.79253 47.882 28.9995 0.231586 3.93542 -0.899228 -1.96212e-05 6.81346e-06 -2.27463e-05 
87 2 27.7902 21.5602 4.81082 1.45944 -2.42244 -0.503381 -6.1749e-07 -5.57405e-06 4.17783e-05 
88 1 41.025 38.655 21.0419 2.38103 0.814951 0.633647 7.65117e-06 -1.35494e-05 1.95999e-05 
89 2 36.3582 31.6151 1.9942 -0.28859 -0.196487 -0.583454 -9.56059e-06 -1.18413e-06 2.69786e-05 
90 2 7.29656 44.1634 2.79973 0.990551 0.277878 0.133405 -2.27483e-05 2.61902e-05 -2.7847e-05 
91 2 32.3658 20.5996 13.8384 0.811249 1.04874 0.10525 1.48368e-05 -1.76228e-05 3.39857e-05 
92 2 38.2555 27.9661 12.5582 -2.57268 -0.600802 -0.616696 -1.75288e-06 -2.53367e-05 2.12681e-05 
93 1 21.2627 52.863 51.2719 -0.444705 0.745547 1.23733 3.01324e-06 1.22772e-05 -2.77675e-05 
94 1 23.5025 30.7852 36.1954 2.20125 3.00399 2.02329 -1.39305e-05 6.28388e-06 2.56613e-05 
95 1 29.4344 54.6636 53.1731 -1.80858 0.548232 0.770043 -1.79685e-06 1.32727e-05 4.61759e-07 
96 2 31.7375 41.0676 27.897 -1.87515 0.746873 -1.96469 1.02041e-05 -1.83325e-05 -2.55312e-05 
97 1 10.6627 42.143 26.5995 -1.74782 -1.65918 2.1384 -1.20909e-05 -3.64868e-06 -1.96077e-05 
98 2 9.09785 51.2733 4.86003 -0.508024 1.71482 -0.905465 1.00963e-05 8.19761e-06 -1.93429e-05 
99 2 50.9299 50.732 47.8357 -0.0467838 -0.905035 0.637789 -2.94842e-06 2.29324e-05 -2.70624e-05 
100 2 52.9302 4.64631 51.0997 0.544787 -0.506112 -1.93269 -3.91703e-06 3.16709e-05 -1.7168e-05 
101 2 5.77646 38.2281 44.4826 -1.59322 -0.589296 1.9077 -2.05685e-05 1.47538e-06 -1.66607e-05 
102 2 21.6004 25.3213 29.7781 -0.283284 -2.48182 0.0802818 2.36264e-05 -7.73956e-06 1.91599e-05 
103 1 34.0443 46.8063 53.7948 -0.664528 0.978184 3.14016 3.67623e-06 6.45564e-06 -6.97932e-06 
104 1 28.7478 33.5259 9.52456 0.414453 0.667219 0.289424 4.08893e-05 -1.84676e-05 2.11001e-05 
105 2 11.2323 55.3114 54.1841 -0.334502 0.918033 0.963126 -1.0706e-05 -5.24454e-07 -4.19288e-05 
106 2 14.3299 56.2324 34.4948 -0.548383 -2.23573 -0.631186 -6.30155e-07 1.55236e-06 -3.36222e-05 
107 1 10.9925 16.7433 25.5823 -0.241701 -3.90228 -0.366545 9.02545e-06 -2.16631e-05 -1.44785e-05 
108 2 54.0488 4.75132 33.4481 0.783438 0.32775 -0.420715 -9.25216e-06 1.08657e-05 -2.28531e-05 
109 2 44.3774 1.44021 56.4919 -1.53648 0.458724 -1.57629 5.7533e-06 9.61555e-06 -1.60282e-05 
110 2 14.8322 52.1364 0.919601 0.400862 -1.20974 1.49281 -2.81354e-06 1.85363e-05 -3.81417e-05 
111 1 17.4107 38.5722 42.3459 -4.51829 -0.196704 -3.5988 -2.91724e-05 -1.83815e-05 4.22434e-06 
112 2 10.4089 9.87657 2.18784 -0.909893 1.58419 0.0247553 1.05398e-05 -1.00598e-05 -2.13022e-05 
113 2 14.1769 52.5902 30.934 -0.803158 0.439363 1.09492 -2.75263e-05 -3.70863e-06 -2.21471e-05 
114 2 39.7462 6.43258 42.8473 0.525345 -0.506762 -0.0855188 -1.72709e-05 3.94465e-05 -3.67816e-06 
115 2 35.3028 9.97124 17.2044 -0.000766948 1.80128 -0.0618079 1.92795e-05 1.49683e-05 5.59124e-06 
116 2 5.4908 39.6735 22.0167 0.156107 1.02173 1.19744 -1.63802e-05 -1.17699e-05 1.06018e-05 
117 2 8.55344 46.1741 23.2288 0.488276 -0.954644 0.939201 -3.87263e-06 -1.48952e-06 -1.56045e-05 
118 2 26.7206 10.2818 53.4632 -0.855281 -0.770953 1.14019 -1.10411e-05 4.03428e-05 -1.91561e-05 
119 2 42.068 51.2743 23.851 0.179929 -2.05951 0.485807 -1.12544e-05 -1.13058e-05 -2.62888e-05 
120 2 56.4785 15.3011 49.7205 -1.75501 -1.15455 0.14496 -2.97449e-06 -8.79902e-06 2.26174e-05 
121 1 39.6829 7.05914 48.0772 -0.229085 0.266404 2.46212 7.12166e-06 4.88066e-05 8.11392e-06 
122 2 0.921941 7.36726 55.5731 -2.51223 1.25092 -2.24302 -1.17193e-05 1.51236e-05 -1.17766e-05 
123 2 38.2633 13.4757 10.4204 -0.635113 -0.262583 2.02222 4.65677e-06 -1.03626e-05 2.71317e-05 
124 2 21.6378 36.134 40.9876 2.06392 -0.345896 1.63204 6.24939e-07 -5.89494e-06 -9.5559e-06 
125 1 4.17934 50.9041 10.5372 -1.46475 -0.631082 -2.78095 -8.94675e-06 1.16163e-06 -1.56008e-05 
126 1 55.7821 37.7739 15.5508 0.558807 -0.357056 1.01124 6.68671e-07 -1.03622e-06 -9.87577e-06 
127 2 45.7949 45.3421 51.0711 -0.124101 -0.286165 -2.25312 -1.46409e-05 7.5431e-06 -8.37753e-06 
128 2 1.49398 3.45534 9.3381 1.6183 0.326915 -0.185217 -3.49579e-06 5.6168e-06 -1.18719e-05 
129 2 9.50555 39.7921 56.6021 1.65532 -0.965755 0.640439 -9.49607e-06 2.28439e-05 5.14797e-06 
130 2 38.2827 18.6266 8.60259 -0.611036 1.80298 1.17343 1.59233e-05 -2.69485e-05 3.20377e-05 
131 2 24.7309 16.5178 0.807075 -1.52566 0.225216 0.745151 -4.25004e-07 9.50987e-06 1.20023e-05 
132 2 23.2601 6.00614 29.8258 0.939614 1.89058 -0.0510338 2.20392e-05 -1.51185e-05 -3.51567e-05 
133 1 24.8191 45.659 22.9883 0.279199 3.95872 0.844332 -6.2059e-06 -5.28675e-05 -2.28482e-05 
134 2 15.7785 50.4262 2.64608 -1.00251 -0.141768 -0.141422 -1.31875e-05 8.70872e-06 -3.19399e-05 
135 2 43.9191 13.0412 24.9568 0.812951 -1.77723 -0.30771 8.0767e-06 -1.2891e-06 1.21172e-05 
136 2 53.7178 42.472 19.7143 0.149392 -0.209988 -1.53999 5.47672e-06 -6.10721e-06 -5.89424e-06 
137 1 14.7049 49.319 30.0553 -0.292458 -3.31807 -0.706834 3.20839e-06 9.73213e-06 -8.79757e-06 
138 2 45.4022 42.8465 32.7233 -0.106882 1.25308 0.00124872 -2.59173e-05 1.74946e-05 -7.61615e-06 
139 2 23.8083 39.8393 38.9676 0.403431 -2.15218 -1.08109 -2.75768e-05 -5.7754e-06 1.85485e-06 
140 2 9.54494 33.6432 22.1571 -0.389319 -1.47486 -1.55955 1.88545e-05 9.86866e-07 -2.10468e-05 
141 1 56.372 33.2769 18.7873 -2.484 -4.69085 3.19943 2.07471e-05 -5.57688e-06 1.68219e-06 
142 2 15.4788 8.38009 12.3515 0.789387 0.412904 -3.5601 9.94128e-06 -1.04049e-05 -2.28439e-05 
143 1 28.1818 1.24128 24.6212 -3.23659 -1.15055 -2.04526 1.45833e-06 -4.49308e-05 -5.26699e-05 
144 2 54.8972 0.334335 55.6906 1.75407 0.534499 -2.5747 -1.9462e-05 2.3562e-05 -2.14866e-05 
145 2 54.232 23.484 38.1709 0.806566 1.65334 -0.382351 2.29242e-05 -1.22476e-05 1.88891e-05 
146 1 10.304 9.5632 7.33994 0.974181 -4.6632 1.00043 1.03713e-05 -5.84716e-06 -1.45382e-05 
147 2 19.8021 3.00508 35.2675 0.744726 -0.163122 -2.40449 1.05902e-05 -1.33704e-05 -3.17363e-05 
148 2 33.0446 38.7903 28.9328 1.22503 2.53204 0.917181 -5.1713e-06 -1.49595e-05 4.3953e-05 
149 2 36.0044 5.31071 9.92708 -0.219958 -1.09802 0.695272 1.05061e-05 -1.29039e-05 -1.97176e-05 
150 2 44.9228 6.79793 27.1536 -0.553999 0.737504 0.903704 -1.27326e-05 1.19405e-05 -1.47928e-05 
151 2 36.5604 42.4982 23.0559 0.751463 -0.406641 -1.72224 -5.11744e-06 -2.80779e-05 1.114e-05 
152 2 53.109 22.9916 22.4263 0.873669 1.7227 0.197266 1.96158e-05 -8.26601e-06 2.20483e-06 
153 2 50.5932 19.4142 11.4598 -0.220547 0.727911 -0.912304 2.68407e-05 1.47028e-06 1.45345e-05 
154 2 10.5836 45.8651 9.55494 0.729015 0.139492 -0.928337 1.10296e-05 3.10352e-05 -5.19077e-06 
155 2 46.161 37.7542 8.69364 -0.251017 0.317715 -0.697462 8.51034e-06 3.66637e-06 7.17903e-06 
156 2 32.1693 48.5337 26.4319 -0.691915 3.10707 -1.63394 -3.56743e-06 -1.25016e-06 -1.83056e-05 
157 1 31.526 1.6558 27.4388 2.25188 -2.52084 -2.52288 -2.86628e-06 -4.12383e-05 -2.75659e-05 
158 2 8.02775 24.938 18.2339 -0.53614 2.26446 1.55041 1.79466e-05 -2.23491e-05 -1.20177e-05 
159 2 41.1595 28.8492 55.3644 0.575037 -1.28912 -0.76466 4.13115e-06 1.67987e-05 4.20712e-05 
160 2 16.5092 20.4723 54.0832 -0.748778 -0.244181 -0.295237 -2.88329e-05 2.98483e-06 1.69231e-05 
161 2 40.6398 2.32735 52.1523 -1.1766 -0.996175 0.672839 -1.4514e-05 4.01453e-05 -1.93286e-05 
162 2 20.401 11.7847 44.2413 0.990035 -1.50065 1.66963 2.88714e-06 1.83792e-05 -3.00548e-05 
163 1 16.66 44.1499 9.99542 -3.7136 -0.818643 2.57271 3.72418e-07 -3.05699e-05 -1.88958e-05 
164 2 55.1186 17.0611 48.0444 0.129987 -1.13581 -0.744965 7.22997e-06 4.60688e-06 -9.49023e-07 
165 1 50.094 2.10964 31.6189 -1.52497 0.24048 -0.787301 -1.97398e-05 3.83689e-06 -1.71239e-05 
166 2 0.835745 1.88203 17.1262 1.40636 1.91407 -1.50777 -1.53425e-05 2.63181e-06 -3.07786e-06 
167 2 40.036 55.806 22.7618 -2.16048 -0.52108 1.81573 -3.3751e-06 -1.53565e-05 -3.3638e-05 
168 2 7.46006 10.5824 7.59902 1.90001 0.426716 0.721544 2.53023e-05 -8.14792e-06 -7.60802e-06 
169 1 12.7204 34.8366 11.9659 1.39261 1.02796 -0.531321 -9.3435e-06 -1.72802e-06 3.59198e-05 
170 1 43.2044 21.3254 41.9494 -2.98829 2.53008 -1.23252 1.48823e-05 2.47433e-05 3.74134e-05 
171 1 56.3031 55.9567 17.2001 -2.25511 2.31219 -2.97705 -1.3405e-06 -1.06675e-05 -1.54735e-05 
172 2 36.8869 2.26171 28.3475 -0.734039 -0.293173 -0.751626 3.29793e-06 -3.67027e-05 -2.55865e-05 
173 1 7.65194 36.6499 48.8552 1.70447 2.39041 1.21827 2.165e-05 3.35841e-05 -9.54708e-06 
174 2 23.5841 37.4549 22.6885 -1.15553 -0.173287 -0.253097 -3.1649e-05 -2.10222e-05 1.91196e-05 
175 1 41.588 9.70287 2.29601 -2.2694 -3.19904 -1.63708 -4.34534e-06 2.3256e-05 -9.81747e-07 
176 2 14.767 47.7382 45.3484 -0.473148 0.162624 -0.300319 -1.70545e-05 -2.38005e-06 -2.64482e-05 
177 2 4.39672 7.09541 24.4325 1.18416 -1.38722 -0.205206 1.34461e-05 -8.45085e-07 -1.70096e-05 
178 2 39.2407 19.9487 32.1379 -0.862527 0.299851 -1.29712 1.12225e-05 2.0407e-05 1.93042e-05 
179 2 52.9484 29.7667 23.2021 1.815 -1.56082 0.990023 1.61826e-05 -5.09818e-06 7.44882e-06 
180 2 34.9359 15.9973 47.8997 0.731058 0.614637 0.113323 1.74173e-05 1.89888e-05 4.04284e-05 
181 2 20.6781 38.3216 16.6003 0.046963 3.96231 1.04226 -5.50566e-05 -2.34302e-05 -1.30675e-05 
182 2 7.00077 17.8889 44.447 -0.184746 -0.461392 0.627047 3.46577e-05 1.272e-05 -3.06909e-05 
183 2 28.5824 37.9887 8.82492 0.069562 0.172086 -1.36677 4.39131e-05 3.82837e-05 -4.5391e-05 
184 2 9.58383 56.6482 17.5313 1.06792 -0.00105302 0.114456 -1.43868e-06 -3.08337e-05 -2.09438e-05 
185 2 13.3314 24.0513 7.24892 0.959317 -0.284322 -1.69721 3.13404e-07 2.07742e-05 5.75979e-06 
186 1 25.8163 19.7749 20.5109 -1.92298 -1.08335 -1.27426 1.68408e-05 -2.19481e-05 1.62897e-05 
187 2 8.79088 54.8427 37.6068 -1.25798 0.59112 1.6895 -2.01557e-06 4.72062e-06 -2.84115e-05 
188 2 16.4523 5.83556 39.8465 0.137832 -0.56482 0.594608 9.3785e-06 -1.48669e-05 -3.89742e-05 
189 2 6.5197 46.2695 16.413 1.30313 -0.0937899 1.10733 -9.09749e-06 2.13401e-05 -1.2487e-05 
190 2 36.0437 12.125 11.2169 -0.0151033 -0.153417 0.442815 -2.03447e-05 3.34464e-06 2.78178e-05 
191 2 54.6885 30.1607 45.2641 1.28289 0.687557 -1.76697 -5.65799e-06 3.41768e-05 2.69605e-05 
192 2 51.8565 19.0134 51.3452 -0.136783 -0.77359 -0.323863 -6.61575e-06 5.1985e-05 5.05975e-05 
193 2 23.6745 46.8069 6.88777 1.46436 0.101118 -0.172585 -3.34216e-05 5.72759e-05 -4.03772e-06 
194 2 3.2325 13.3757 22.5842 0.779922 -0.251984 -0.368638 7.25729e-06 -1.81426e-05 -5.97119e-06 
195 2 2.65759 26.1487 24.3833 0.0670222 -0.612562 -2.02087 1.44994e-05 7.98116e-07 2.27884e-05 
196 2 34.7696 19.844 55.7618 1.33385 0.0235154 0.426878 3.78106e-06 2.79577e-05 4.6445e-05 
197 2 41.5723 21.0336 30.9934 0.296889 -0.569672 -0.225786 2.99379e-06 1.56053e-05 3.64164e-05 
198 1 27.6553 11.8006 25.6376 0.0959111 2.07302 2.55866 2.31672e-05 -1.01687e-05 7.36449e-06 
199 2 34.623 32.6465 15.6621 -0.201706 0.334529 -0.0999227 2.67034e-05 -2.4058e-05 2.22143e-05 
200 2 29.3783 31.2595 56.6787 0.422312 -1.03872 0.233321 -1.19299e-05 2.29562e-05 2.49787e-05 
201 1 13.7934 19.4436 43.9598 -1.83928 3.48285 -4.10333 -1.12736e-05 -1.30796e-05 2.70149e-05 
202 1 40.6854 39.456 8.05074 1.36352 1.378 -0.250773 2.04377e-05 1.44932e-05 -1.27008e-05 
203 1 9.72571 39.5193 22.2626 -0.0228101 2.56514 -0.932473 1.4295e-05 -2.00724e-05 -5.09849e-08 
204 2 41.8298 1.15778 12.0468 0.990344 -0.705589 1.02644 -1.07509e-06 -2.99724e-05 -2.81876e-05 
205 2 1.46577 14.1184 31.554 -0.278487 0.924575 -1.7028 -1.60115e-06 1.06928e-06 -2.97612e-06 
206 2 45.4843 21.241 2.77363 0.452489 -2.00938 1.40797 1.28278e-05 5.81581e-06 3.39715e-05 
207 2 35.6424 28.2319 40.5713 -0.588112 1.19721 -0.177632 -2.02659e-07 1.31936e-05 5.19095e-05 
208 1 44.2466 1.03961 46.0011 3.39512 0.268137 3.19087 -1.56231e-05 1.77158e-05 -1.63644e-05 
209 2 15.6852 30.3226 40.7593 1.74262 -0.268734 -0.649592 -2.52176e-05 8.41399e-07 1.26893e-05 
210 2 42.0741 56.489 40.8738 0.927714 0.257518 0.995475 -1.78086e-05 5.05833e-05 -4.62738e-05 
211 1 3.6176 50.0271 32.4051 -0.012847 0.478688 -2.15286 -9.30346e-06 4.23375e-08 -2.93798e-05 
212 1 35.0533 33.7528 23.5478 -0.953585 -1.31526 1.79822 1.28108e-05 -2.72359e-05 3.02279e-05 
213 2 45.8194 44.8848 30.6127 -0.450062 -0.189664 0.537368 -3.1671e-05 7.24031e-06 -5.93401e-06 
214 2 25.8372 34.037 5.77512 -1.28396 0.762552 -3.74611 -4.42753e-05 2.25793e-06 9.27534e-05 
215 2 9.51219 43.0584 52.7893 0.780865 -0.290405 -1.29557 -2.33082e-07 3.45994e-06 -2.59634e-05 
216 2 0.306322 20.0792 22.5819 -0.0328864 0.335102 1.02412 1.71089e-05 -4.41174e-07 9.8728e-06 
217 2 54.1265 17.0346 50.5963 -0.00943483 -0.526131 -1.2422 -1.63369e-05 1.8846e-05 1.70013e-06 
218 2 4.44137 29.0972 11.0023 -0.13711 -0.695017 0.506976 6.25393e-06 6.42949e-06 5.81684e-06 
219 2 4.20227 4.18691 10.672 -0.997172 0.23508 2.70298 1.8522e-07 1.04734e-05 -3.63346e-06 
220 1 13.0686 54.6967 5.7562 2.86882 3.5128 -0.806545 1.38229e-05 -3.5747e-06 -2.8855e-05 
221 2 36.4607 3.45002 25.641 -1.19834 0.846208 0.501691 1.27478e-05 -3.97675e-05 -9.47147e-06 
222 2 44.7761 27.8365 15.0855 0.353186 -1.26695 -0.90258 1.61886e-05 -1.60511e-05 3.32358e-05 
223 2 38.7538 5.56879 21.0138 1.08243 -0.617703 -0.123153 -6.07579e-07 -6.06484e-07 1.80177e-05 
224 2 13.2486 43.5915 27.4043 0.614113 0.820271 1.20437 -1.82007e-05 5.16048e-07 -2.01549e-05 
225 2 15.1458 19.1225 33.6674 0.229688 -0.568138 -1.10119 2.43554e-05 -1.61726e-05 1.27194e-05 
226 2 23.5534 2.28645 48.19 -0.210484 0.206017 2.1409 -9.85702e-06 6.69127e-06 -2.86333e-05 
227 2 19.9624 53.1231 27.1271 1.02484 -0.931281 -2.49535 8.95878e-07 -2.10266e-05 -3.77621e-05 
228 2 49.9453 13.2998 28.9418 1.85726 0.655527 -0.202015 1.27949e-05 4.19749e-06 1.01939e-07 
229 2 47.2941 28.1235 16.6629 -1.04726 -0.1999 1.2605 1.31733e-05 -4.67309e-06 2.70665e-05 
230 2 14.6121 55.291 12.1916 -0.372429 0.0698207 0.272847 1.18681e-05 -2.34399e-05 -2.39052e-05 
231 2 38.9793 29.1326 15.2315 -2.73479 0.188489 1.45257 2.38542e-05 -2.23112e-05 6.29764e-06 
232 2 9.33598 29.4593 44.0129 0.830898 -0.657072 -0.418046 -5.38447e-05 0.000109385 -4.9434e-05 
233 2 44.9074 30.5391 53.9864 -1.84784 1.18756 1.15519 2.40225e-05 1.85294e-05 1.92243e-05 
234 2 4.88677 1.92342 53.4218 0.363112 0.386776 -1.09115 -8.53694e-06 9.65209e-06 -3.68411e-05 
235 1 32.7734 42.564 45.053 0.0373478 -0.361969 -3.33858 -1.5565e-05 2.00193e-05 -8.27819e-06 
236 2 45.2871 21.4209 27.2435 0.158039 -1.35972 0.117833 1.48303e-05 -4.90687e-06 3.00044e-05 
237 2 35.1923 2.09549 19.0844 -0.483594 0.447864 -1.04043 -4.46413e-06 -3.65275e-06 -4.00113e-05 
238 2 39.6613 13.0789 16.1433 -0.827108 1.25203 1.53844 3.01426e-06 -8.45362e-06 3.40753e-05 
239 1 0.354833 21.1327 56.1449 -1.09102 -0.814057 -1.68016 -4.74095e-06 1.68169e-06 2.29106e-05 
240 2 46.9818 47.7974 31.2532 -0.540886 -0.718378 0.00900991 -2.30812e-05 -1.71339e-05 -1.26985e-05 
241 2 20.6914 0.267879 19.1019 -0.725519 -2.30977 -0.449716 -1.24165e-05 -2.31984e-05 -2.24158e-05 
242 1 7.6546 19.8372 53.0987 1.10045 -0.0290758 -1.78864 -3.30172e-05 -2.74843e-05 3.67936e-05 
243 2 31.1921 21.6047 44.6539 2.92343 1.48534 1.24253 6.80035e-06 -1.12861e-05 4.05844e-05 
244 1 45.2369 21.8241 10.1703 1.17444 0.0765789 -0.964266 1.1007e-05 -9.15646e-06 3.36943e-05 
245 2 53.686 13.9158 36.2833 0.180291 0.191178 -0.361814 -4.0368e-06 3.06251e-06 -2.29817e-05 
246 2 11.4788 39.2075 43.6686 -1.27265 -0.580182 0.100403 -3.77629e-05 8.02648e-06 -2.43148e-05 
247 2 31.9221 23.6874 14.1653 -0.0790627 0.236956 0.403148 1.89738e-05 -1.93385e-05 3.51569e-05 
248 1 4.81388 52.3407 22.5965 -1.30291 -0.103485 -0.00188997 -1.00894e-05 -3.2261e-06 -1.61341e-05 
249 2 46.992 15.2265 45.6532 1.29215 0.247191 0.396506 3.45659e-05 2.46773e-05 8.49702e-07 
250 2 47.4254 21.1647 8.14122 0.844753 -1.05062 0.109492 2.94427e-05 5.35066e-06 1.74632e-05 
251 2 4.76323 23.139 29.7596 -0.94819 -1.52152 -0.436312 3.59298e-06 -1.25969e-05 2.20932e-05 
252 2 40.7269 7.66678 21.6253 1.04926 0.0558912 0.751184 2.38293e-05 -2.64351e-05 -2.90216e-05 
253 1 6.06583 49.6177 32.6727 -1.83724 -1.0943 2.11322 -2.23853e-05 1.03871e-05 -3.14254e-05 
254 2 19.4361 54.2735 3.83265 1.02824 0.12793 0.939534 -3.28849e-06 -2.60293e-05 -3.75443e-05 
255 2 20.111 46.7863 12.13 -1.25599 -2.90625 -0.0191213 5.35021e-05 -5.19818e-05 -4.5078e-05 
256 1 50.1383 13.2681 2.09086 0.407152 0.804993 -2.99768 8.63393e-06 8.82798e-06 1.62445e-05 
257 1 17.8371 12.5959 16.9512 -0.779616 -1.33373 1.89245 2.6269e-05 -1.79645e-05 4.9479e-06 
258 2 24.8962 5.10813 17.1465 1.44583 0.99463 1.1148 3.89356e-05 -5.68219e-05 -2.92123e-05 
259 2 47.0825 8.08227 16.5788 -2.66208 -0.6312 0.420107 -1.22491e-05 -2.86288e-06 5.70822e-06 
260 2 0.599766 38.2923 5.99872 1.01502 -1.02315 -0.339035 2.31827e-05 -7.42098e-06 -4.15732e-06 
261 1 43.8407 37.4437 9.76673 -0.174222 0.0503367 1.69888 3.09767e-05 -2.38234e-05 9.48989e-07 
262 1 36.9919 8.32779 9.968 1.31359 2.79977 0.854453 -1.40342e-05 -2.22332e-05 -1.80769e-05 
263 2 51.7566 21.5145 13.0181 -1.58136 -1.09926 -0.349602 2.3236e-05 1.02066e-05 2.04452e-05 
264 2 42.3947 27.9747 21.4358 -0.947039 -0.00885476 0.645322 3.74492e-05 -3.28397e-05 2.89607e-05 
265 2 23.4077 38.2033 2.5975 0.0856776 1.39189 0.137465 -1.03946e-05 -4.51638e-05 2.67028e-05 
266 1 13.7416 23.3558 22.1053 3.42307 -0.94524 1.4075 9.38213e-06 -1.39684e-05 1.89769e-06 
267 2 26.2489 11.7269 35.2969 0.707165 0.483581 2.21066 1.55697e-05 2.14086e-05 7.52146e-06 
268 2 0.65323 0.733983 4.23582 -1.52321 0.501243 0.216404 -5.06881e-06 1.58412e-05 -5.70904e-06 
269 1 42.6247 28.7345 18.7126 -0.70182 -0.846269 2.5942 2.35673e-05 -5.01145e-06 2.90534e-05 
270 2 12.3602 8.93986 30.7406 -0.601561 -1.4224 1.15983 1.89173e-05 -1.35991e-05 -2.88483e-05 
271 2 45.6821 31.882 56.1874 1.04694 -3.2446 0.804665 -1.20886e-06 6.76169e-06 8.72104e-06 
272 1 17.3167 24.6555 41.7959 -0.0629843 -1.63838 -3.54188 2.95371e-05 1.41061e-05 3.52985e-05 
273 2 43.7928 24.4012 18.0399 0.766689 2.95778 -0.30494 1.19368e-05 1.23775e-05 3.67899e-05 
274 1 42.3295 18.722 47.6461 -1.25399 -0.539531 -1.87453 1.5507e-05 3.1649e-05 3.84029e-05 
275 2 53.4493 10.7487 27.4123 -1.36762 -0.552681 -1.28584 -2.02491e-06 5.29481e-06 -6.03723e-06 
276 2 23.6929 18.0221 8.65417 -1.35228 -1.01299 1.35387 1.84214e-05 -6.31067e-06 6.48689e-06 
277 2 40.352 47.0449 14.1617 -0.135737 -0.161888 0.520827 1.74873e-05 -9.29509e-06 -2.89456e-05 
278 2 6.58716 41.005 44.104 -0.911304 0.191342 0.0244988 -1.52679e-05 -9.60783e-06 -2.09894e-05 
279 2 45.5378 11.9912 19.8759 -1.22274 0.856262 -0.429699 -4.85238e-07 2.43183e-06 1.71238e-05 
280 2 10.0755 0.311886 9.7997 1.67281 1.92951 1.66739 5.68129e-06 -1.05517e-05 3.51431e-06 
281 2 44.4736 20.35 43.981 -0.130085 -0.367514 -0.120221 3.093e-05 2.72552e-05 1.05954e-05 
282 2 24.4079 32.5502 24.9813 0.355434 0.851509 -1.18718 -1.31477e-05 -2.97138e-05 9.184e-06 
283 2 16.018 35.0941 9.39089 -0.670124 -0.371644 1.66896 1.98899e-05 5.68044e-07 -2.42952e-05 
284 2 33.7495 37.6101 10.1975 -0.254502 1.04755 0.140387 -1.55917e-06 -3.14755e-05 3.40665e-05 
285 2 18.8552 20.5278 39.1688 0.930762 2.07745 -1.86599 9.85384e-06 -3.39834e-05 -4.82331e-06 
286 2 15.3469 32.0027 22.8775 0.593631 0.730904 0.701393 -3.64589e-06 -1.42256e-05 -3.64945e-06 
287 2 16.4891 51.0554 29.7695 -1.20505 1.23259 -1.44716 9.28962e-06 -1.62065e-05 -7.55293e-06 
288 2 27.2468 46.4855 27.6895 0.824291 -0.779366 -0.777917 1.84032e-05 -2.39124e-05 -2.33223e-05 
289 2 23.8182 54.4488 42.5587 -0.367823 1.89908 -0.751842 -7.45231e-06 -9.23904e-06 -3.59369e-05 
290 2 51.9785 3.21772 39.7325 -1.58905 1.52798 1.28595 -6.8318e-06 1.52811e-05 -1.48244e-05 
291 2 5.72347 48.9229 38.379 -0.220946 0.00148134 -1.78953 -2.04403e-05 2.25735e-06 -1.79937e-05 
292 2 27.6438 48.6758 8.98912 -0.217505 -0.445259 0.0586108 -1.78818e-05 3.86768e-05 9.3432e-05 
293 2 17.1051 55.7247 4.82649 -0.110145 1.89455 -0.299216 -4.1932e-05 2.6483e-05 -5.37565e-05 
294 2 49.8948 15.0073 45.0352 3.57674 -1.44415 1.21435 -6.08617e-06 2.12013e-05 2.1255e-05 
295 1 22.6422 38.0285 18.4821 -2.36802 -0.481628 -0.356932 -4.0718e-05 -7.24506e-06 9.1365e-06 
296 2 26.1292 15.2089 51.8485 -0.807302 -0.63215 -0.397014 -2.66031e-06 9.952e-06 6.58359e-06 
297 1 34.1992 47.3023 21.0147 -0.433634 -4.634 0.197307 1.23886e-05 -5.36381e-05 -1.16445e-06 
298 1 0.561867 34.839 34.4995 4.37237 -2.74436 2.02721 5.06864e-06 2.12891e-05 5.14175e-06 
299 1 2.19132 43.331 34.5905 1.24024 -3.72128 3.73434 -5.07355e-06 1.09988e-05 -7.2555e-06 
300 2 25.4351 5.62803 21.6431 -0.958671 -0.489291 -1.59305 4.28196e-05 5.09689e-06 -1.40352e-05 
301 2 22.8389 23.3123 20.4718 1.15455 0.863557 -1.19872 2.60308e-05 -4.63071e-05 1.96215e-05 
302 1 21.5234 5.24898 54.3798 -3.15978 1.23384 0.641375 1.60421e-07 5.42277e-06 -4.33459e-05 
303 2 40.8775 2.35 5.29395 3.35549 -1.14911 -0.780233 -9.7726e-06 1.01389e-06 -1.06309e-05 
304 2 27.5427 1.71987 8.01669 -0.287745 -0.0554953 0.426212 -9.21037e-06 -7.59632e-05 -3.91498e-05 
305 2 43.8039 16.3162 27.9437 0.446312 0.84295 -1.06311 1.91898e-05 1.5658e-05 2.05488e-05 
306 2 12.9744 54.6125 19.0336 0.189342 1.15592 -0.683599 9.82754e-06 -1.76856e-05 -2.62196e-05 
307 2 45.0264 12.324 8.53455 -3.11496 0.414691 0.516007 3.67321e-06 8.28469e-06 1.96846e-05 
308 2 42.1884 7.42916 31.1988 -1.49071 0.658469 0.668109 9.84651e-06 1.85664e-05 -8.32395e-06 
309 2 56.6253 44.6075 44.2899 -0.174891 -0.733412 0.532539 -1.09523e-05 3.00205e-05 -2.05434e-05 
310 2 25.7604 32.2115 12.3061 0.322847 0.0349801 0.401096 -9.54611e-06 -4.17351e-05 7.38926e-05 
311 2 24.6358 19.6871 43.1076 -0.0799945 0.519154 -0.106068 -2.27703e-05 5.90242e-06 1.40703e-05 
312 2 37.1561 30.448 40.3013 0.67978 -1.08193 2.14749 -1.2175e-06 2.38376e-05 3.7986e-05 
313 2 24.4408 55.0749 26.0051 -1.0668 0.309742 0.411265 -2.69597e-06 -1.74119e-05 -2.76842e-05 
314 1 53.0054 56.5262 22.5123 -1.32064 1.39696 0.568508 -7.71685e-06 -3.91366e-06 -1.64381e-05 