ITEM: TIMESTEP
21131
ITEM: NUMBER OF ATOMS
11664
ITEM: BOX BOUNDS pp pp pp
0.162405 56.8047
0.162405 56.8047
0.162405 56.8047
ITEM: ATOMS id type x y z vx vy vz fx fy fz 
1 2 25.1993 27.264 45.2607 -0.716553 2.24115 0.797956 0.000162602 -6.0232e-05 1.40543e-06 
2 1 28.6132 33.9578 3.04688 -1.25323 0.863629 1.5366 -1.17661e-05 4.69023e-06 1.2321e-05 
3 2 34.9658 44.9132 54.6448 -0.839411 1.15222 1.13196 9.98073e-06 3.33652e-05 -3.82831e-06 
4 2 18.2807 0.253593 41.2113 -0.598081 0.376827 -2.76208 -5.80471e-06 1.02652e-05 1.80637e-05 
5 2 33.8979 10.6549 27.8218 -0.0802547 -0.817762 -0.892954 7.72407e-07 -3.48589e-06 -1.66441e-05 
6 2 40.4621 13.7456 25.0697 0.143237 -0.173162 0.975066 1.34903e-05 -1.12899e-06 -1.83536e-05 
7 1 38.4401 19.2058 7.41628 2.27528 -1.53195 -2.16132 5.91483e-07 6.57521e-06 -7.99383e-06 
8 2 53.5406 3.85089 36.3173 1.02947 -1.65451 -0.338004 -4.32328e-06 -2.50158e-05 6.77119e-06 
9 2 8.21799 13.6716 7.84607 -0.342954 -1.9482 -2.23214 -2.4297e-06 -3.88005e-06 -1.77726e-06 
10 1 0.961639 33.647 43.3853 1.58774 -0.618674 -2.30177 7.51988e-06 -1.44464e-05 -5.20493e-07 
11 1 17.8076 18.4013 43.803 1.14261 2.50917 0.687713 4.13065e-05 -2.51067e-05 -1.96059e-05 
12 2 21.2514 42.2822 25.6539 -1.89754 -1.39667 0.789186 1.01937e-06 9.38962e-07 1.36116e-05 
13 2 32.6101 0.342497 5.85106 -1.01145 -0.830676 -0.962845 -1.17826e-06 -5.69779e-08 1.05954e-06 
14 2 50.3815 46.9129 17.7632 -0.221098 -0.149421 0.517476 -5.00414e-05 3.16289e-05 -3.47238e-05 
15 1 47.743 8.71787 15.3576 -1.84392 2.15472 0.874494 -5.0775e-06 6.93486e-07 -8.8507e-06 
16 2 29.4162 50.9882 5.96665 -1.52738 0.720692 0.212327 3.24072e-06 2.29911e-06 -4.39258e-06 
17 2 18.1283 52.8711 2.30736 -1.18394 -0.635286 0.226619 -2.10025e-06 -1.82935e-05 4.44964e-06 
18 2 29.8376 12.5575 34.7693 -0.271429 0.901915 -0.989864 1.05895e-05 -3.93197e-05 2.89065e-06 
19 2 9.69627 9.47713 6.91367 -0.321205 -2.52706 -0.00915179 -6.65137e-06 6.40891e-06 -1.09371e-05 
20 2 41.7206 14.8529 44.5237 0.97522 0.416123 -2.5013 4.60171e-06 -1.02857e-05 -5.29917e-06 
21 2 16.9121 24.9562 33.8306 -0.804499 1.39084 5.34264 3.17845e-05 8.36941e-06 3.30314e-05 
22 2 26.0114 0.354039 30.7748 -0.4335 -1.57017 1.09585 -3.60137e-06 2.28969e-06 1.12191e-05 
23 2 15.907 18.7875 17.6606 0.485923 1.34613 1.10062 4.87572e-06 5.742e-06 -1.01718e-06 
24 2 3.22028 47.7669 38.4306 -2.07808 -0.269751 -0.928918 -5.50165e-06 -1.29681e-05 1.43496e-05 
25 2 1.80722 16.0946 54.7439 0.345918 -0.270913 -1.58757 -8.87152e-06 -4.45688e-07 1.36394e-05 
26 2 5.58007 16.907 46.1469 1.57248 -0.734724 1.39936 1.96639e-06 1.08931e-05 2.11128e-05 
27 1 26.1508 10.5693 38.3363 1.47604 -0.983142 -0.537811 4.25192e-06 -7.3305e-06 -1.15836e-05 
28 2 33.5302 17.3671 53.3048 -0.09975 -0.671437 1.7595 1.05377e-05 -2.849e-06 -6.00926e-06 
29 2 23.1113 37.5905 0.876938 -0.983878 -0.230621 0.0802808 -7.01343e-06 2.62028e-06 -5.42301e-06 
30 2 56.1389 24.4298 47.4148 0.969814 -0.224208 0.157386 1.68191e-06 1.7807e-05 1.68278e-05 
31 2 26.2646 5.43437 17.9722 0.57554 0.829382 -0.577822 -1.02946e-05 1.66413e-08 -6.78177e-06 
32 2 10.8104 13.1582 36.5759 0.872251 -0.421695 -1.98619 -1.11669e-05 1.4882e-05 4.4781e-06 
33 1 21.0637 52.4257 54.6009 0.769469 -1.31272 -2.40909 4.32593e-06 7.439e-06 3.71406e-06 
34 2 37.2676 42.0379 28.3715 -1.15618 -0.270278 0.722671 -2.54888e-05 -1.22179e-06 2.13132e-05 
35 2 16.0448 52.074 48.8526 -0.336432 2.01378 -0.557315 3.94105e-06 -3.14103e-06 -1.43162e-05 
36 2 48.2628 16.5386 36.6645 -2.65428 -0.955846 -1.31528 1.13964e-05 -2.94484e-05 -9.82797e-06 
37 2 4.33465 3.87229 2.01045 -0.959149 -0.43769 0.801971 -6.15089e-06 -9.97192e-06 -1.9101e-05 
38 2 39.935 21.6208 55.6232 -0.319453 -0.444285 -0.201151 -5.11401e-06 -1.018e-05 -1.09802e-05 
39 2 33.7649 31.9992 34.0263 -2.66235 -0.226876 1.63037 -5.57124e-06 3.39678e-05 1.44492e-05 
40 2 26.0138 5.34381 6.11258 0.272986 -1.93126 2.24982 1.31642e-05 -9.16963e-06 5.0411e-06 
41 2 54.1084 31.0722 11.1254 -1.0157 -0.465051 0.26177 -8.74871e-06 -3.39164e-05 9.26492e-06 
42 2 26.753 40.9606 2.4829 -1.2726 0.127582 2.50762 -4.20365e-06 8.83602e-06 -2.96335e-06 
43 2 44.0938 55.4464 33.3155 0.622772 0.634989 0.747157 9.57313e-06 6.43832e-06 1.78686e-05 
44 2 42.0319 22.5633 8.97107 0.465212 -2.38157 -0.186055 -6.83186e-06 -1.44349e-05 -2.45821e-05 
45 2 18.6746 40.0849 31.6589 -0.143386 -2.06669 0.693856 -1.9363e-05 8.46248e-06 6.45189e-06 
46 1 11.0791 30.2023 3.79739 -0.777251 2.86325 0.21148 -7.34818e-06 2.96093e-06 7.70322e-06 
47 2 32.7833 5.64528 49.9107 -0.138512 1.10912 1.17149 -2.30096e-05 -1.28789e-05 9.69653e-06 
48 1 53.9266 55.252 27.8482 0.804062 5.01539 1.97556 -3.19051e-06 1.05869e-06 1.49837e-05 
49 2 32.3815 49.2596 53.2728 -0.213947 1.18126 0.360079 1.13156e-05 6.65438e-06 5.97494e-06 
50 2 14.2088 26.7347 22.1011 1.45287 -0.694733 2.22528 2.91571e-05 -2.02809e-06 -3.70252e-06 
51 2 39.0116 53.6387 22.5276 2.19118 -1.00416 0.223611 -5.94588e-06 8.79061e-06 -1.3815e-05 
52 2 44.1762 23.8129 30.9815 -0.0912908 -0.619467 -0.384652 -3.19027e-05 3.83225e-06 1.22413e-06 
53 2 40.1067 4.46572 10.5669 -1.59182 0.507229 -0.892053 3.03006e-06 2.06491e-05 -7.95097e-06 
54 2 14.9602 54.8693 11.6989 -0.0291127 -0.754407 -1.50983 8.86098e-06 3.84712e-06 -1.14103e-05 
55 1 9.1274 50.8579 11.9678 2.21597 1.32864 -3.01801 -8.33435e-06 2.9687e-06 4.35906e-06 
56 2 8.11164 29.3824 3.0314 2.23224 0.3941 0.070513 -9.69375e-06 2.77069e-06 -2.6802e-05 
57 2 52.311 38.335 46.1181 0.241182 -0.262839 -0.846907 -5.67399e-06 1.27311e-05 -3.84108e-05 
58 2 32.6629 18.7043 11.0282 0.434536 -0.41358 1.07499 6.32596e-06 -2.72888e-06 -1.24551e-05 
59 2 25.1356 23.4334 41.7814 -0.919194 -1.11416 -0.91244 7.53227e-05 1.62092e-05 7.75347e-06 
60 2 42.6181 13.4641 30.0302 0.192298 0.814825 0.997668 4.48631e-06 4.71923e-06 -1.61247e-05 
61 2 19.2519 2.60615 53.8149 0.38841 0.590026 1.36919 -1.57081e-05 -3.15145e-06 -7.23988e-07 
62 2 25.8856 13.1316 36.6817 -0.149198 -0.132594 0.217737 1.54995e-05 -1.74731e-05 -4.07251e-06 
63 2 30.991 38.2483 16.6584 -0.170082 -0.274045 1.13348 -9.34916e-07 -9.62227e-06 -2.67339e-05 
64 2 16.221 9.63501 38.9154 -0.318109 0.139306 -1.02583 1.0427e-05 2.23314e-05 -1.75517e-05 
65 2 45.4037 45.8748 45.0101 -3.21228 -3.11915 1.77337 8.16574e-06 -6.01031e-06 1.28755e-05 
66 2 10.3023 44.9143 3.39919 -1.08107 1.22528 0.870231 7.57082e-06 1.29833e-05 1.55579e-05 
67 2 14.9614 27.9331 17.9253 0.957236 -0.00997963 3.60802 7.3678e-06 6.5496e-06 -1.42565e-05 
68 1 25.5327 39.9169 51.6248 0.152158 -1.06805 0.751042 -5.8591e-06 1.8682e-05 1.11128e-05 
69 2 22.5942 52.2671 35.8767 2.56555 -0.0393598 -0.293642 -3.26951e-06 5.04368e-05 -1.53922e-05 
70 2 8.67651 9.68201 4.39886 2.44105 1.19096 -0.741298 3.23122e-05 -1.56789e-06 3.00722e-05 
71 2 54.1964 41.0033 28.3848 0.718638 0.615375 -0.0211026 -5.91322e-06 -4.59618e-05 2.39867e-05 
72 2 53.914 46.943 6.45712 -1.62497 0.895489 0.0712323 3.65578e-05 -2.0186e-06 5.20139e-05 
73 2 35.5757 27.4318 9.32919 1.0702 1.57692 0.866966 1.42702e-05 5.77258e-06 -1.99692e-05 
74 2 39.6672 36.0859 10.2333 0.511723 0.544266 -1.48449 3.33551e-08 2.1775e-06 1.59651e-05 
75 2 32.2944 36.1981 35.1058 0.622248 0.577056 0.655542 -5.03216e-05 2.57123e-05 -1.10745e-05 
76 2 43.2176 30.188 9.03207 -0.585145 0.587503 0.352063 6.56078e-07 -3.77494e-06 1.9468e-05 
77 2 5.86637 31.8762 38.8035 0.435049 0.547011 0.02297 2.98179e-06 -4.21373e-06 1.23017e-05 
78 2 43.7345 36.6824 13.3757 0.946489 -1.49229 3.36516 2.20185e-05 2.73181e-05 -1.54224e-05 
79 2 1.79504 8.18722 0.51629 -1.61883 -0.920272 -0.630881 1.96813e-05 -7.78523e-06 -8.003e-06 
80 2 22.6636 16.4622 51.2199 0.965975 0.928378 -0.170574 -1.30907e-05 8.56459e-06 6.45532e-06 
81 1 47.3036 54.836 40.7426 -0.155084 -0.0116355 -0.283582 6.75028e-06 -1.81784e-05 -6.67741e-06 
82 2 0.701439 50.8007 31.7873 -0.708013 0.151087 0.546278 3.67438e-06 -4.72206e-06 2.17003e-05 
83 2 11.2822 11.9335 55.0001 -1.21481 0.815628 -0.347448 1.70848e-07 1.07358e-05 -2.18071e-05 
84 2 40.8535 38.6089 1.83642 -1.76076 0.514543 0.0870589 2.11656e-05 -2.11458e-05 -1.02953e-05 
85 2 20.6446 26.0145 4.06447 1.06512 0.229029 0.390297 -1.40135e-05 -1.01282e-06 2.67524e-05 
86 2 24.1562 10.8817 45.2299 -0.681322 2.448 -0.40889 1.94743e-05 -9.50583e-06 9.87704e-06 
87 2 24.3628 45.5384 36.562 2.79604 0.507085 -0.397626 -5.38944e-06 2.38691e-05 6.73717e-06 
88 2 2.68419 45.4705 16.4367 -0.933363 1.08758 -0.646693 -3.21405e-05 2.31643e-06 -1.47573e-05 
89 1 16.7282 51.9788 39.5755 0.170207 2.52636 3.76671 -1.41503e-05 2.19774e-05 3.9627e-06 
90 2 45.0304 36.8612 30.3165 0.181104 0.860969 0.109254 -1.42932e-05 -6.55796e-06 -3.01375e-06 
91 1 26.3192 34.8335 33.7007 -0.102886 1.63368 3.24652 -3.69552e-06 2.73736e-05 -3.83176e-06 
92 2 18.2106 47.9014 38.5654 1.70864 0.824201 -4.02463 4.08732e-06 1.6489e-06 -7.35169e-06 
93 2 31.924 40.2206 38.6234 -0.688374 -0.0231494 -0.880541 -3.36105e-06 3.15731e-05 2.3125e-05 
94 2 37.129 3.56378 54.7227 -0.691663 -0.0999002 -0.668232 9.42704e-06 -1.02019e-05 1.16734e-05 
95 2 18.697 25.9633 32.0634 1.13316 -0.682016 -0.343121 4.06388e-05 1.44973e-06 4.60737e-06 
96 2 52.3983 31.1302 17.9953 0.28481 -0.348877 2.61814 -1.12426e-05 7.20276e-06 1.80065e-06 
97 2 20.6218 38.7419 10.3651 2.47597 0.454736 -1.45686 -1.75397e-05 2.77201e-05 2.58409e-06 
98 2 9.46424 30.316 10.6489 0.797077 1.05152 -1.12982 -2.46092e-06 7.42935e-06 -1.14278e-05 
99 2 45.9144 53.6288 9.46975 1.23831 0.750832 -0.970737 5.70806e-06 7.89749e-06 -1.56013e-05 
100 2 12.9196 7.60687 9.2747 -1.12967 0.0605319 -1.86093 -4.08289e-07 3.2483e-06 2.13474e-05 
101 2 20.9704 6.21248 5.58676 0.8143 -1.54917 -0.286798 -1.57177e-05 6.02727e-06 -1.71008e-05 
102 2 32.8627 37.3685 52.0054 2.44824 1.21253 0.78445 -4.48252e-06 1.50725e-05 -2.70193e-05 
103 2 2.57027 50.2142 1.27288 0.486915 0.426904 -0.519834 -9.76625e-06 -9.71861e-06 -2.7995e-06 
104 1 2.31342 42.8494 27.3866 -2.07433 -2.86642 3.72885 -6.50149e-06 -1.20703e-05 1.59586e-05 
105 2 5.98762 19.1677 23.3011 -2.41008 2.69472 0.364684 -8.22663e-06 2.66768e-05 -6.8111e-07 
106 2 48.3287 0.65668 53.4388 0.357747 1.52708 -0.880064 3.36113e-06 -1.59245e-06 -1.39611e-05 
107 2 43.9323 39.5944 38.0526 -0.882398 -1.46479 -1.24716 -2.10074e-05 5.74543e-06 -2.28473e-05 
108 2 46.3369 6.27566 35.7928 -0.541736 -0.431162 1.18665 1.83826e-05 -5.125e-06 -6.58273e-06 
109 2 31.3853 41.5378 53.0471 -0.607129 1.88004 -0.937727 -2.57057e-06 -1.16961e-05 -6.0885e-06 
110 2 42.3982 22.5524 20.6958 0.102352 0.0204663 0.850433 1.54591e-05 4.60653e-06 -2.97294e-05 
111 2 43.8043 56.8013 26.4933 0.427965 1.19521 -0.615749 2.74976e-06 -6.53316e-06 -8.32705e-06 
112 2 52.9472 22.1005 5.99518 -0.263726 0.721869 -0.381856 -2.43715e-05 -4.90038e-06 -6.06307e-06 
113 1 8.05712 4.59144 50.1698 0.769749 0.0671778 -0.308159 6.75866e-06 8.66092e-06 -2.54329e-06 
114 2 47.4 24.4105 55.3167 -0.478066 -1.2694 0.491184 -6.01728e-06 2.06202e-06 1.81773e-06 
115 2 15.4681 17.7709 45.5798 1.69687 -0.36677 -0.284616 1.33419e-06 -4.14501e-06 -1.32874e-05 
116 2 40.6902 15.0008 41.9829 -0.911582 -1.77866 -0.756179 9.65944e-06 -2.30838e-05 -3.48455e-06 
117 2 31.672 44.1471 42.1209 -0.667587 -1.77109 0.764143 -5.31212e-06 -7.5134e-06 -9.2469e-06 
118 2 30.8536 33.5551 7.94006 -0.272049 0.807561 -0.164898 -8.06284e-06 2.9692e-06 -9.26672e-07 
119 2 1.90029 9.46188 17.4358 1.2029 -2.26692 -0.784202 5.95071e-06 1.91986e-06 -1.38041e-05 
120 2 43.4668 40.5106 16.9001 1.18041 0.912943 -2.07928 4.78232e-05 8.12301e-06 2.2875e-05 
121 2 16.0531 31.478 45.0511 -1.21613 0.674975 -1.41448 4.85691e-05 -1.85558e-05 5.51862e-06 
122 2 40.1078 45.3457 3.6466 -0.319486 -1.41903 -0.54065 2.98703e-05 -9.8748e-06 2.21799e-05 
123 1 21.6552 15.0798 43.6211 3.55774 -1.33646 -3.55255 2.63628e-05 1.40578e-05 -8.26532e-06 
124 1 31.9201 29.8437 30.621 -0.233303 2.66021 -3.22556 1.07908e-05 -2.51664e-05 2.20368e-05 
125 2 22.8542 35.4662 26.2838 -0.764881 1.47349 -0.313153 9.7441e-06 -1.78991e-05 -1.12067e-05 
126 2 0.864791 22.6792 32.9176 1.57043 0.90633 -0.673313 2.36058e-05 1.93243e-05 -3.6078e-06 
127 2 50.7663 54.4634 15.2082 0.0732212 1.53203 -2.24523 1.44239e-05 1.17156e-05 1.44196e-05 
128 1 21.4888 29.6074 10.0062 -1.79932 2.55346 -0.204566 -6.95476e-06 7.23787e-06 -4.56323e-08 
129 2 7.44443 27.8686 28.3886 0.444423 -1.07227 0.869077 3.33984e-05 -7.77353e-06 1.80734e-05 
130 2 22.0895 16.4677 15.6522 -1.22127 2.48951 0.112792 -3.29906e-06 2.6964e-06 -6.04858e-06 
131 2 53.0244 17.0977 30.5357 -2.54737 1.25032 0.766058 -2.32211e-05 1.47481e-05 -1.29359e-05 
132 2 15.0239 33.0389 26.4638 -3.12421 -0.453629 -0.977805 3.58526e-05 -2.77102e-06 6.85908e-06 
133 1 16.4785 3.20589 13.3002 -2.19531 -1.33992 5.04614 7.43469e-06 -4.16754e-06 1.84119e-05 
134 2 14.7506 31.7661 21.4541 0.372085 -0.234717 -1.7677 3.19795e-05 -1.23149e-05 1.87741e-05 
135 2 31.3253 6.00752 23.6583 0.183834 0.418492 0.00641744 -1.8345e-05 1.37363e-05 1.02007e-05 
136 2 25.9605 28.514 40.9882 1.38889 1.1558 0.286452 8.9349e-05 -1.18555e-05 2.30163e-05 
137 2 46.545 53.648 45.0006 0.226541 -0.280956 1.54108 7.79928e-06 -1.59323e-05 -1.5673e-06 
138 2 21.0963 3.73493 52.0822 -1.47606 -0.358321 -0.175085 -6.25381e-06 4.85725e-06 1.65521e-05 
139 2 33.4581 50.5902 27.8217 -0.188477 -0.0393526 1.58089 4.14596e-05 3.96985e-06 1.92137e-05 
140 1 17.3874 38.8423 45.2813 -3.47582 -4.91663 -0.470037 -2.36696e-05 8.15417e-06 1.89729e-05 
141 2 39.1888 19.1389 54.8271 -0.23015 -0.246442 -2.12453 4.77459e-06 2.83892e-05 -5.06811e-06 
142 2 38.1577 24.3486 15.9399 0.27887 -0.782502 0.930573 -7.23014e-06 -3.79637e-05 -1.95244e-06 
143 2 32.687 15.9776 45.7253 0.900827 0.362986 -2.18209 -6.35721e-06 -3.32204e-05 7.69446e-06 
144 2 37.1757 1.04336 44.6382 -1.17593 -0.903015 1.74828 1.46959e-05 1.79072e-05 -4.17767e-06 
145 2 40.2106 28.3387 26.88 -1.93929 0.10459 -2.09702 -4.14488e-06 1.54726e-05 -1.24501e-05 
146 2 28.2266 14.1597 13.677 -0.827357 -0.402207 1.19644 -5.68134e-06 -2.76726e-06 -3.49213e-06 
147 2 51.587 6.64427 53.2405 0.983506 1.50368 0.744779 4.22749e-06 -1.36251e-05 2.13444e-05 
148 2 26.495 40.4652 11.796 0.292668 1.69171 -2.58425 -2.04243e-05 1.74051e-05 2.97757e-06 
149 2 30.0293 46.8385 14.2466 -1.69794 0.133303 0.0816292 2.10617e-05 1.39081e-05 4.79017e-05 
150 2 41.3243 42.7334 31.5282 -2.32105 0.344221 -1.37497 1.5229e-05 4.577e-06 -5.34167e-06 
151 1 28.1078 41.6876 10.1416 -2.70481 2.81477 -0.979206 -1.13233e-05 4.57225e-06 9.74692e-06 
152 1 20.2146 38.6324 19.7152 1.70379 0.107932 0.248794 1.14076e-06 6.152e-06 1.55294e-06 
153 2 23.4453 43.3535 14.6404 -0.219754 0.390573 1.83942 -7.5312e-06 3.66467e-05 2.74263e-05 
154 2 54.5627 2.38906 33.7728 0.689265 1.22488 1.41381 1.98448e-05 -7.73152e-06 3.86215e-06 
155 2 34.7098 23.4422 36.3235 0.806349 -2.09714 -0.162745 2.57304e-05 -4.31562e-05 -5.90971e-05 
156 2 45.3827 50.0642 27.3633 -2.63875 0.145001 -1.6769 -2.6755e-06 -1.93763e-05 1.75184e-05 
157 2 20.5164 12.8363 19.0758 -0.997478 -1.0667 1.74513 -2.75761e-05 3.10876e-05 7.63922e-06 
158 2 26.9619 3.98935 48.4772 0.352718 -0.98879 0.648014 1.72169e-05 -2.88402e-05 3.03323e-06 
159 2 6.58357 30.7112 14.966 -0.349437 1.7555 0.205518 6.8887e-06 -2.27003e-06 4.11733e-07 
160 2 54.3949 19.2179 10.0786 -1.27754 -1.17115 0.361275 -1.79875e-06 2.71304e-06 -3.09549e-05 
161 1 35.8505 6.41906 5.75974 1.29699 -0.708018 -1.28846 -2.91751e-06 -6.05102e-06 -5.3714e-06 
162 2 11.8611 34.5812 45.4062 0.537799 -1.90075 -1.01287 2.98499e-05 -8.06696e-06 5.84893e-06 
163 2 18.5173 45.2281 40.2282 1.58532 -0.378794 0.699099 -1.61164e-05 2.61347e-05 2.90113e-06 
164 2 38.8749 21.8735 53.1319 0.533238 -0.712771 -0.387099 -1.67456e-06 -3.27626e-08 -1.94572e-05 
165 1 6.67161 40.3794 53.3827 4.41426 -3.61762 -0.252558 3.64608e-06 3.25736e-06 4.68347e-06 
166 2 6.00362 28.0897 35.2459 0.232042 1.67243 -0.572554 3.21595e-05 -1.97515e-05 -3.75296e-06 
167 2 24.5315 43.8624 7.70305 -1.04511 1.57045 0.208426 -1.04143e-05 2.95597e-06 8.72875e-06 
168 2 14.2976 35.1535 55.3724 -1.8265 0.444854 -0.59456 8.8465e-06 4.48358e-06 1.98843e-05 
169 2 46.8736 10.169 29.8496 0.930504 -0.853924 1.24132 1.69614e-05 1.55347e-05 6.56485e-06 
170 2 35.101 14.4392 12.5467 -0.373939 0.253276 -1.23485 3.95307e-06 -2.75483e-06 -1.88366e-05 
171 1 6.56801 48.2773 50.9195 0.533399 0.73814 0.527132 1.93505e-05 -5.76867e-06 1.40192e-06 
172 2 51.1031 39.0451 22.4346 2.62458 -1.16218 -0.515669 1.37423e-05 -8.92285e-06 1.28782e-05 
173 2 50.7544 18.7259 30.5864 -1.6177 -1.64703 -1.04643 2.41906e-05 -1.13016e-06 6.36122e-06 
174 2 4.05812 35.6796 49.0992 -1.62565 -0.933263 -0.14761 2.34863e-05 -2.45942e-05 2.71432e-06 
175 2 50.5787 38.3921 52.9742 0.793066 2.13811 1.94776 1.17331e-06 -2.57017e-05 -1.87591e-07 
176 2 20.0662 2.46317 44.5003 0.514711 -0.404053 1.65954 5.11993e-06 1.85012e-06 1.78353e-05 
177 2 50.8262 37.9857 17.2342 1.53638 1.86228 -1.55931 -1.41754e-05 -5.72275e-06 -4.06659e-06 
178 1 40.7991 20.2932 29.4198 -1.2313 -3.33815 4.51919 -1.27762e-05 -5.2393e-06 -1.15101e-05 
179 2 26.4147 16.8936 30.7119 -1.33108 -0.197058 0.702087 9.67639e-06 8.32074e-06 -1.75316e-05 
180 2 22.4728 49.8222 25.7586 -0.720685 -3.104 -1.15847 -4.00313e-05 1.23074e-05 2.03594e-05 
181 2 38.1423 7.56264 27.6921 1.9539 0.678802 -0.878404 6.62448e-06 -1.13151e-05 -2.28853e-06 
182 2 49.2298 12.3041 11.9521 0.270448 -0.640125 -0.56815 -2.35247e-05 -4.20298e-06 3.92025e-06 
183 2 19.6212 32.2205 36.428 -0.286641 -1.60138 -0.424638 4.25361e-05 1.19345e-05 3.85846e-05 
184 2 5.15321 2.47058 44.393 -0.0895648 0.0819143 0.799317 9.60898e-06 1.71864e-05 -1.54013e-06 
185 2 41.55 10.8315 17.3705 0.586717 0.0111498 -1.44663 1.15681e-05 -9.34957e-06 1.06827e-05 
186 2 16.0411 33.2097 7.81029 -1.1319 -1.21971 -0.337895 -4.2836e-06 6.67937e-06 1.07125e-05 
187 1 36.6667 56.4614 3.98277 1.30812 6.33381 -4.71237 1.70275e-05 -4.81383e-06 -3.40008e-06 
188 2 32.6901 34.5529 6.24717 0.0448226 -0.809917 -0.258503 5.51932e-06 4.96747e-06 -2.93246e-05 
189 2 29.9335 27.2231 48.3784 1.2649 -1.31906 0.840776 -3.65886e-05 5.24228e-05 5.26627e-05 
190 2 30.6067 52.2484 37.2218 -1.17534 -0.157625 -1.79046 -6.76298e-06 1.91869e-05 7.36586e-07 
191 2 5.1875 11.6671 46.94 0.174709 -0.926562 -2.04391 1.6577e-06 3.91133e-06 -2.86338e-05 
192 2 56.0968 34.8864 55.1691 -1.45925 0.679079 -0.648374 -1.34066e-05 -1.63955e-05 -1.57692e-06 
193 2 9.77163 27.4506 33.3973 -0.800581 -0.751432 -0.879425 5.67906e-05 -2.94828e-05 2.42136e-05 
194 2 37.6825 15.3878 46.4001 1.43238 0.31664 0.286454 -5.64344e-06 -1.98538e-05 2.00118e-06 
195 2 15.6946 54.7101 47.2344 -0.137361 0.112754 -0.665189 1.00497e-05 -4.07696e-07 -2.82132e-05 
196 1 6.65962 35.7508 23.5287 2.75279 -0.0506269 -1.19937 1.90082e-06 -1.48986e-05 8.41924e-06 
197 2 11.5313 27.4134 5.31355 0.530479 0.678257 1.84426 -1.49717e-05 3.39633e-06 2.26559e-05 
198 1 33.0893 9.44864 32.1597 -3.36566 6.81714 0.638329 1.46018e-05 -2.39984e-05 -1.93262e-05 
199 2 32.3977 26.3289 29.5974 1.13054 0.401637 -1.31035 5.25982e-05 2.56797e-07 -2.21228e-05 
200 1 17.9778 24.7245 36.2735 -3.32411 2.9545 0.686406 4.04285e-05 1.53292e-05 1.18903e-05 
201 2 37.8978 52.302 47.8836 1.36394 -1.08604 0.233634 1.1145e-05 -8.70308e-06 -2.59174e-06 
202 2 46.5831 15.3817 50.1402 0.0889688 -0.304517 -1.98041 -6.8073e-07 -1.24411e-05 -1.09215e-05 
203 2 36.7763 45.8779 52.9098 2.04469 -0.393648 0.728254 1.81349e-05 1.80365e-05 4.35934e-06 
204 2 40.308 44.1078 34.1929 0.0510061 0.569047 -1.52175 -1.27151e-05 7.20623e-06 -3.75394e-06 
205 2 24.1038 0.534552 37.5639 -0.936572 1.78504 1.86623 3.25274e-06 -1.64666e-05 2.48295e-05 
206 1 23.4736 27.7359 31.007 -1.14004 0.647352 3.47583 1.76767e-05 9.77055e-06 9.60373e-06 
207 2 25.0511 33.6198 47.2274 0.588528 0.944534 1.26947 -3.04107e-06 2.83674e-07 1.79681e-05 
208 2 12.7778 30.1427 53.6259 1.2923 -0.0995178 0.0972688 1.07681e-05 -1.57873e-05 2.28265e-05 
209 2 22.8752 13.5987 41.0245 0.115275 1.65137 -0.340539 -1.46268e-05 1.75334e-05 -2.97577e-06 
210 2 51.2316 49.3102 18.6152 -1.03772 -0.0485375 -0.213929 -1.06925e-05 -2.3146e-05 3.39581e-05 
211 1 16.9672 21.4134 54.0087 -0.216893 0.00532375 1.84623 -1.70703e-05 1.14977e-05 5.54374e-06 
212 2 9.22634 10.9862 45.0949 -0.477828 0.0273609 -1.00055 -9.534e-06 1.91435e-05 -6.36423e-06 
213 2 5.5653 12.8271 19.0096 -2.0033 1.18323 2.37194 1.51022e-05 1.95772e-05 -2.40752e-05 
214 2 2.90016 49.1449 31.7138 0.673543 0.253168 0.451077 6.66083e-06 -2.2671e-05 3.0418e-05 
215 2 26.9416 52.8034 50.9311 -0.0333702 -0.608557 0.169902 -5.87957e-06 -1.00832e-05 -2.44216e-06 
216 2 17.9316 28.5981 39.6765 0.16112 -1.62414 -0.813716 6.68602e-05 -3.13842e-05 2.06899e-05 
217 2 21.1156 30.5719 45.5946 -0.934075 0.470164 -1.0712 3.97922e-05 9.40169e-06 6.84816e-06 
218 2 36.7659 53.7811 50.5029 -1.75142 0.0402789 0.667831 2.25202e-05 9.82111e-06 1.51685e-05 
219 1 13.2934 8.81933 38.1026 3.40403 -0.576229 3.28626 1.85268e-05 8.23574e-06 7.51094e-07 
220 2 17.4996 53.1886 35.3125 2.18969 1.41353 -0.504365 -2.31031e-06 2.90349e-05 1.58155e-05 
221 2 28.8253 36.9939 27.746 2.31067 0.897051 1.74241 -1.12343e-05 4.19695e-05 -1.78163e-06 
222 2 38.9198 32.4009 39.7512 -0.00828362 -0.329057 -0.615052 -6.70577e-06 -1.71533e-05 -1.61299e-05 
223 2 31.2977 40.2493 47.9068 0.198283 0.913042 0.385186 -1.56513e-05 1.20659e-05 -1.58533e-05 
224 2 27.1387 20.6143 36.6917 -1.30763 -0.933264 -0.385034 1.55597e-05 -3.52821e-05 -5.60588e-06 
225 2 56.7066 20.2407 32.0793 1.21833 -0.71362 -0.400717 -1.08128e-06 -1.35844e-06 6.60189e-06 
226 2 47.3191 35.1668 30.1292 -1.15728 -0.238918 -1.66896 -5.64041e-05 2.30182e-05 -7.08136e-06 
227 2 23.3538 54.7449 36.713 1.14641 -2.5097 0.812538 -1.65125e-05 4.99093e-07 -1.25704e-05 
228 2 56.7969 3.34263 43.7919 1.66032 -0.949094 -0.684702 1.98356e-05 6.05067e-06 1.53418e-05 
229 1 52.9635 39.6585 42.0866 0.318279 -2.5915 0.206685 -1.59458e-06 -1.79918e-05 -1.37284e-05 
230 2 34.8549 40.9996 39.3615 -0.466934 2.03057 0.0788747 -1.20566e-05 4.57779e-07 -2.10859e-05 
231 2 34.0971 21.21 2.52929 -0.00572035 -0.943179 1.38022 -6.62132e-06 -1.18573e-05 -3.73755e-06 
232 2 12.8723 6.39347 49.1103 -1.04426 0.401376 0.0992567 3.70629e-06 2.35515e-05 -1.84807e-05 
233 2 56.563 17.6153 9.9593 0.0223775 -1.52729 0.264793 1.96359e-06 -1.60911e-05 2.549e-05 
234 1 20.6631 36.9933 47.5295 2.26962 0.87769 0.472568 -3.67395e-06 -1.82366e-06 1.29176e-05 
235 2 10.7783 1.56668 23.787 0.808911 0.109439 0.00809763 -4.51282e-06 7.58501e-06 4.33494e-07 
236 2 12.4971 9.13657 47.4759 0.571939 0.576847 0.387926 -5.66002e-06 1.49232e-06 5.16445e-06 
237 2 41.0684 12.2299 55.4882 0.436146 -2.87178 0.603956 9.92811e-07 -3.55546e-06 1.18506e-05 
238 2 52.3169 1.344 56.5469 -0.188616 -1.27459 -0.670094 -6.11091e-06 4.84407e-06 1.35461e-06 
239 2 20.6006 32.2342 17.817 1.45033 -1.0815 1.92843 -3.87222e-05 -2.48565e-05 -1.67825e-05 
240 1 18.124 40.2486 19.8302 -3.91814 4.14601 -0.732105 -1.14227e-05 5.41016e-06 8.85185e-06 
241 2 53.2862 26.091 56.7704 -0.569244 0.507335 1.67725 4.46543e-06 2.05872e-06 -2.10053e-05 
242 2 1.76481 49.3986 29.2294 1.25589 -0.194665 1.64306 -2.8931e-05 -9.64062e-06 -1.37596e-05 
243 2 0.844601 39.1881 30.7397 -3.47214 -0.659418 -0.269088 -4.12222e-06 -2.34317e-05 4.44512e-05 
244 2 20.8576 38.4309 31.5049 0.803386 0.0541335 -1.08743 1.09275e-05 3.81035e-05 2.3898e-05 
245 1 15.6344 50.9439 32.0162 -1.26883 2.53554 -1.30259 -2.61891e-06 -8.66734e-07 -1.43141e-05 
246 2 5.76272 23.0015 26.7398 0.536866 -0.445113 -1.21418 2.58206e-05 1.05271e-06 2.17831e-05 
247 2 19.6482 54.0335 45.4181 0.0572783 -1.33414 0.25733 1.30109e-06 1.47867e-05 1.65557e-05 
248 1 4.10807 44.7898 51.9137 -2.69158 0.0558907 -2.8736 -6.7108e-07 -1.1524e-06 -1.92223e-05 
249 2 1.98079 1.74459 31.8801 0.144312 1.71231 0.813183 1.39228e-05 1.02319e-05 2.40263e-05 
250 1 2.43553 32.6318 31.2956 -0.0263308 3.48028 -1.60575 1.84973e-05 -5.18118e-06 1.05599e-05 
251 2 28.2385 15.4565 18.7281 2.08047 -1.83248 -0.0231317 5.50928e-06 -7.8698e-06 9.06969e-08 
252 2 38.4219 21.7734 17.5798 0.831074 0.575599 0.0280416 1.35214e-05 -1.80869e-05 -3.01329e-05 
253 2 5.02515 42.1947 44.1623 1.31017 0.340997 2.2145 -5.62608e-09 -1.02857e-05 1.12452e-05 
254 2 24.7218 39.3303 13.542 0.530104 -0.39604 -0.746224 -4.18166e-06 2.34687e-05 -1.37024e-06 
255 2 16.7924 39.11 33.4311 -1.26486 -0.347668 0.550018 1.142e-05 7.94036e-07 1.96479e-05 
256 2 34.6636 56.6532 10.8074 -0.965275 -0.21081 -2.05415 -1.02435e-05 2.40977e-05 -3.29349e-06 
257 2 30.3545 20.0305 44.1023 -0.202884 -2.04203 0.534163 -1.99394e-05 -3.95295e-05 2.40433e-06 
258 2 25.6177 12.0262 19.836 -0.11398 1.34139 -0.296229 -9.43909e-07 3.77676e-06 1.46645e-05 
259 1 48.1654 38.2521 21.6922 0.581522 3.70011 1.23529 9.77358e-07 -9.96123e-06 8.24913e-08 
260 2 35.0525 56.74 34.5023 -0.115511 0.264329 0.887577 1.83927e-05 -2.00988e-05 -9.78191e-06 
261 2 29.7207 1.01038 22.0445 0.256249 -0.34635 1.68123 -2.01759e-05 -1.40434e-05 7.24201e-06 
262 1 7.94784 11.0922 30.7708 2.39018 0.399721 1.50945 -1.5883e-05 1.88366e-05 -1.09538e-05 
263 1 52.3629 7.8701 48.9692 0.666342 1.34001 -0.407653 6.13668e-06 -8.0726e-06 6.15605e-06 
264 2 9.69425 17.3542 4.47794 -0.185058 0.869089 -0.110942 1.67588e-06 9.15174e-06 9.04705e-06 
265 2 39.6921 44.4081 22.4141 -0.37751 -0.35647 1.69323 -1.78768e-05 -1.93758e-05 -1.33098e-05 
266 2 28.749 27.9684 36.6386 0.16463 0.492315 2.28348 0.000121806 1.62412e-05 -3.72995e-05 
267 2 46.8319 26.9692 18.0623 -1.2469 0.4761 -0.397069 1.18502e-05 -2.10247e-05 -9.75829e-06 
268 2 1.18682 45.1698 56.2038 1.57688 3.25103 -1.38825 -3.14961e-06 -1.33507e-05 1.48786e-05 
269 2 56.6893 30.1751 37.3495 0.736337 1.47436 0.0279189 3.69986e-05 -3.72149e-05 -9.22491e-06 
270 2 19.9353 30.9649 22.0117 0.50131 -0.182598 -0.208439 5.79369e-07 -1.0429e-05 -1.0608e-05 
271 2 20.506 2.41659 11.4612 0.347447 2.64898 -0.85809 1.79439e-05 -1.36209e-06 -1.28775e-06 
272 2 14.2629 25.9683 52.6053 -1.8911 -0.405094 0.340928 9.96598e-06 5.49022e-06 1.86766e-05 
273 1 49.3995 24.1818 48.4991 -0.457666 -2.29268 -2.82188 -2.18134e-05 -1.27821e-05 -2.00389e-05 
274 2 38.7513 29.7874 50.7025 1.61561 2.74105 1.26835 -2.5713e-05 -8.34037e-07 -4.01752e-05 
275 2 8.51518 25.5091 56.2685 -0.682334 -1.09383 0.759123 -8.65732e-06 2.0441e-05 7.77744e-06 
276 2 6.00082 53.8756 14.6841 -0.518113 -0.769516 -0.723477 -2.09264e-05 2.2609e-06 1.01729e-05 
277 2 40.6251 25.4284 4.87769 1.53114 0.238392 -0.829906 -2.035e-05 -2.45428e-05 -1.10249e-05 
278 2 39.1962 24.459 42.1294 0.178484 0.482109 0.0201836 -3.76046e-05 -2.97885e-05 -4.38393e-05 
279 2 25.2896 27.5448 24.1756 0.778288 -0.478396 -1.71353 1.44267e-05 7.57536e-07 1.66658e-05 
280 2 4.03784 50.2189 39.3301 -0.727249 -0.577037 -0.754716 1.3488e-05 -8.79116e-06 -4.00895e-06 
281 1 11.6892 7.90433 51.7314 -1.90371 -2.61033 -1.08225 -5.57105e-07 1.23022e-05 -9.78666e-06 
282 2 8.1871 18.8147 28.2487 0.211597 -0.0123258 0.956692 1.24226e-05 2.10779e-05 2.69565e-05 
283 2 48.0989 15.1209 19.7657 1.3596 1.89243 0.535166 4.07428e-06 -1.10501e-05 3.34031e-08 
284 2 50.8274 32.9136 8.90013 1.89684 0.0920831 -1.33765 -3.5122e-05 -1.63486e-05 2.22425e-06 
285 2 38.1791 10.0367 37.8272 2.55421 1.12 0.55566 -7.5936e-07 -1.39626e-05 -1.61692e-05 
286 2 39.1578 21.6672 8.23443 -0.981993 0.521371 -3.14144 1.72565e-05 -1.08607e-05 -3.09175e-05 
287 2 24.8073 29.4872 53.0319 -1.34178 1.1912 0.111541 -1.15272e-05 -3.27805e-06 -4.52177e-06 
288 2 46.7306 23.1913 2.86807 -0.216046 0.479055 -0.00995711 2.83184e-06 -2.83736e-05 -4.60977e-06 
289 2 44.401 38.1469 44.792 0.0450796 -0.257887 -0.103862 -2.11731e-05 -2.82471e-05 -6.44462e-06 
290 2 38.184 46.7693 15.7674 0.678855 -1.66771 -2.01519 -1.89542e-05 5.29017e-06 -8.80817e-06 
291 2 45.0176 41.085 24.468 -0.783536 1.6667 -1.32204 -3.60515e-06 -2.16964e-05 2.84208e-05 
292 2 33.2769 51.9416 21.0456 -1.9515 -2.69756 -0.786994 -1.17911e-05 1.17645e-05 -1.03131e-05 
293 2 30.519 25.3461 31.421 -1.53546 -1.08109 -1.43708 8.99312e-05 2.1234e-05 -2.13439e-07 
294 2 15.8193 40.152 0.561255 -0.506626 -1.76058 1.86309 2.19388e-06 2.01598e-06 1.92379e-05 
295 2 26.9883 48.9429 35.6102 -1.30544 -0.771774 1.6745 5.61391e-06 2.35865e-05 -7.00422e-06 
296 2 20.9628 16.7062 13.1743 0.49472 -0.435423 -1.1279 -1.05161e-05 2.08931e-05 -5.59202e-06 
297 2 30.8971 25.5053 10.3072 2.59038 -0.67173 1.36576 -2.53435e-05 -2.04733e-06 1.12453e-05 
298 2 46.8376 48.4025 36.511 -0.214637 1.39051 -0.437154 -2.02331e-05 -6.35778e-06 -7.60879e-06 
299 2 9.23108 14.7953 15.424 -0.569577 -1.74294 0.145456 -3.17877e-05 1.36745e-05 3.54839e-06 
300 2 49.4839 20.0822 21.442 -1.14517 -0.800574 -1.5689 -4.81195e-06 3.36359e-06 3.47345e-06 
301 2 34.344 9.29055 46.4754 -0.521629 0.918737 -1.39618 1.64835e-05 -1.28668e-05 2.03202e-05 
302 2 25.0397 30.1578 22.6473 -0.748414 -1.19937 -2.89059 8.57997e-06 3.01942e-05 -9.81431e-06 
303 1 34.6339 41.5068 18.3362 0.606808 0.860917 0.274928 -4.1315e-06 -1.79285e-05 -2.18054e-05 
304 2 35.3153 10.4955 54.0805 -1.07461 -0.847867 1.04154 -6.50109e-06 2.41139e-06 1.70264e-05 
305 1 12.9428 30.8193 23.2724 -0.153777 0.24153 -2.21134 8.89242e-06 5.32611e-07 8.85924e-06 
306 2 29.0858 10.0934 33.9634 -0.408965 1.26763 -1.97949 1.25089e-05 -1.15323e-05 -8.71304e-07 
307 2 4.39488 1.237 48.6 -0.493339 0.650349 1.10501 2.96303e-06 -4.4415e-06 3.52203e-06 
308 2 28.6551 35.8281 22.6515 0.14324 0.358533 3.28851 -2.21259e-05 2.5028e-05 -8.84806e-06 
309 2 36.677 40.0387 18.1574 -0.159556 -0.327612 -0.256753 -8.47984e-07 -1.28914e-05 -1.57969e-05 
310 2 41.7372 5.59041 53.7285 -1.45454 0.691598 0.0474254 6.74095e-06 -1.2744e-05 1.87246e-05 
311 2 45.32 22.3095 28.4085 -0.490403 0.286815 2.19369 -3.16278e-05 -2.12021e-05 -7.78346e-06 
312 2 24.5218 15.9591 32.5432 -0.0222637 1.49094 -0.868602 5.14781e-05 2.06067e-06 -4.40047e-06 
313 2 3.68624 54.1057 42.7293 -1.12896 -0.698143 1.22523 -1.42184e-05 -9.40325e-06 -1.89247e-05 
314 2 19.268 10.5018 51.3761 1.1451 -0.245755 -1.16887 9.64441e-06 6.62819e-07 -7.97731e-06 
315 2 19.7207 33.3786 41.5677 1.2099 -1.04348 1.46269 3.9903e-05 3.14519e-05 1.5604e-05 