ITEM: TIMESTEP
21173
ITEM: NUMBER OF ATOMS
11520
ITEM: BOX BOUNDS pp pp pp
-1.52697 51.667
-1.58688 53.6939
-1.49612 50.6231
ITEM: ATOMS id type x y z vx vy vz fx fy fz 
1 1 15.1489 32.2325 2.60735 1.26631 1.24019 -1.34268 -1.0322e-05 7.52935e-06 -3.06102e-06 
2 1 51.2862 44.6592 43.3347 -1.80338 -3.82671 0.320664 -5.92052e-06 1.4253e-06 1.90502e-05 
3 1 45.2536 4.83613 18.9481 3.83364 0.819828 -0.350039 -9.29327e-06 8.67926e-06 -8.11624e-07 
4 2 23.4011 12.9124 24.0471 0.995233 -0.340031 0.640848 -5.26155e-06 5.64095e-06 -3.15218e-06 
5 2 47.4364 12.2503 34.892 -0.706502 -0.0632728 1.91698 -3.81249e-06 1.83455e-06 -8.86075e-06 
6 1 47.1385 52.5108 39.8292 -1.22089 2.12239 -2.88155 -6.88679e-07 -2.48581e-07 -6.30557e-06 
7 1 19.8318 12.2112 5.1182 2.06402 0.244281 -3.79799 7.03366e-06 1.00274e-05 -1.0308e-05 
8 2 35.9914 26.4985 12.4403 -1.05312 0.921803 1.11138 -2.40575e-05 4.73629e-06 2.59687e-06 
9 2 34.5339 12.4582 45.3818 -0.730988 1.15262 0.186687 6.66003e-06 -1.44301e-05 -5.90042e-06 
10 1 36.439 31.5958 1.83888 -3.23482 -1.10081 0.723306 -3.75595e-05 -2.71963e-05 -5.81945e-05 
11 1 14.3113 45.2877 18.8798 0.651207 0.97326 1.2825 5.54111e-06 6.95693e-06 -3.06508e-07 
12 2 0.0133846 35.7836 23.3625 0.254993 1.12727 -1.66055 2.88227e-07 3.95678e-06 4.79555e-06 
13 1 15.5801 33.7497 41.4958 -2.72813 2.30574 0.167827 9.87865e-07 -7.23462e-06 -1.57866e-05 
14 2 12.0804 -0.285251 15.6653 1.74611 0.219625 -1.33392 -2.53568e-06 7.58799e-06 5.1179e-06 
15 1 24.4949 3.81551 17.1742 0.318108 1.6013 0.986053 2.88614e-06 -3.12499e-06 -1.08052e-05 
16 1 31.2845 38.6177 33.9072 2.73568 2.14249 -0.637537 4.23428e-06 5.01076e-06 8.43975e-06 
17 1 38.1703 10.9608 1.23736 2.1048 -0.246584 -0.176166 -1.59259e-05 -2.29795e-06 4.70017e-05 
18 1 27.615 35.4773 27.2879 0.654901 1.64691 0.529796 -4.81683e-06 -1.57075e-06 1.32161e-06 
19 1 47.5332 10.4469 27.0408 0.591426 1.05926 -1.35463 -2.62283e-06 8.87107e-06 4.07542e-06 
20 2 0.866676 18.0367 20.6055 1.23235 1.8337 1.87959 1.09313e-05 8.65622e-06 1.66485e-06 
21 1 17.9571 37.7855 2.36397 -0.832853 1.51451 -0.131436 -8.07272e-06 4.3586e-07 -6.16532e-06 
22 1 30.8245 -1.44754 7.94568 1.87671 0.431379 -1.22869 -2.04111e-06 5.26953e-06 -1.18743e-05 
23 2 49.8358 18.2274 -0.562342 -1.10059 1.68982 -0.350729 -2.71039e-05 2.45405e-05 1.11351e-05 
24 1 46.9922 43.7466 46.7755 2.94931 -0.804678 -0.168901 5.40945e-06 4.3225e-06 -1.27368e-06 
25 1 44.6319 50.1243 34.4424 -3.89897 0.520104 -0.723444 -5.62386e-06 -2.29669e-06 -2.82095e-06 
26 1 13.6342 1.25963 19.6517 -1.08041 -0.582061 -2.8205 -1.04692e-05 1.7191e-05 -1.084e-05 
27 1 14.0734 36.8264 20.079 0.261197 1.20417 0.0398737 -2.57245e-06 1.33921e-05 1.7657e-05 
28 1 29.1464 33.309 49.5577 -1.59285 2.14474 1.65934 -5.73775e-06 2.16859e-06 -5.1479e-06 
29 1 32.5749 22.4194 33.7279 4.12249 2.27697 1.54521 -1.23439e-06 1.04646e-05 -3.70209e-06 
30 1 43.2628 53.489 30.8678 -0.419941 -0.524696 2.66188 3.55308e-07 -6.57787e-07 -3.35639e-06 
31 1 27.0792 49.382 28.2135 -3.34214 0.697185 1.75089 6.06078e-06 3.94476e-06 5.26715e-08 
32 2 5.50828 29.6012 0.693046 -2.14388 -0.844239 2.05681 4.17838e-05 -8.4328e-06 1.50503e-05 
33 1 -1.03389 28.1371 33.7952 -1.15997 2.66594 3.44736 1.93254e-05 6.47684e-06 7.98661e-06 
34 1 17.5991 40.0511 26.5934 3.55332 1.4575 -0.978682 2.71146e-06 7.66076e-06 1.54273e-05 
35 1 36.5943 27.5063 38.7752 -0.247398 -2.40881 1.13509 2.22553e-05 5.59035e-06 -2.21316e-06 
36 1 19.0035 34.2129 44.806 2.0394 -0.501636 -0.0288647 -2.33735e-06 -6.10096e-06 -8.02153e-06 
37 1 5.90777 46.2779 0.699929 0.833432 0.698658 -2.27239 6.31089e-06 1.12227e-05 -3.01367e-06 
38 2 1.58495 27.0875 27.6307 0.620916 0.0868012 -0.141326 4.28053e-06 -5.49956e-06 4.93684e-06 
39 1 37.0049 42.4458 5.04726 -1.41809 -1.47781 -1.22731 -3.83324e-05 2.82505e-05 -1.56494e-05 
40 1 18.6431 27.1277 41.5899 -0.273942 -1.57653 -0.67025 1.69167e-05 5.6481e-06 -8.23152e-06 
41 1 38.8628 5.81902 2.68263 0.617721 -1.81963 1.79873 -1.69201e-05 3.49255e-06 7.02114e-06 
42 1 18.5275 44.7278 20.842 0.550058 1.35633 -3.41221 8.42494e-06 -7.98811e-06 -3.11034e-06 
43 2 31.2087 41.719 31.9223 0.987567 0.776553 -1.14989 -5.5156e-06 1.30224e-05 -1.96618e-06 
44 1 39.8819 37.2462 32.3117 1.78924 1.02331 -0.0837161 9.02825e-06 -4.59273e-07 6.64866e-07 
45 1 27.2271 20.3839 13.7149 0.496137 -3.97729 -2.29194 -1.59335e-05 1.89593e-05 3.11861e-06 
46 1 47.2369 13.1583 32.4214 2.85474 -2.8728 -0.131696 2.17507e-05 -7.22381e-06 1.82399e-05 
47 2 9.28145 30.5615 19.8747 -2.17883 0.0276441 -0.668185 -1.49817e-06 9.4233e-06 1.07056e-05 
48 2 20.5344 51.0765 29.0303 -0.431548 0.556547 -0.0473236 5.32715e-06 -5.58696e-06 -9.083e-07 
49 1 48.4066 38.7737 12.9225 -3.43224 2.35503 1.21895 -2.2888e-05 -1.24306e-05 -1.3513e-05 
50 1 14.9317 39.4987 26.907 -1.14349 0.743589 0.758431 1.29124e-06 9.21602e-06 5.62305e-06 
51 1 32.2716 34.5853 39.6386 -0.729032 0.307372 1.63847 2.40176e-06 -1.81482e-05 4.97496e-06 
52 1 34.484 19.0749 0.370883 1.64368 1.41495 3.70908 2.45907e-05 -3.96468e-06 2.28434e-05 
53 1 15.9241 8.20065 10.8663 2.57655 0.904607 -1.69243 -2.10778e-06 4.18369e-06 -4.84738e-07 
54 1 39.3094 18.3055 24.0184 -0.424703 -0.699131 -1.03098 7.15395e-06 -1.42792e-05 4.21178e-06 
55 1 26.5791 20.914 32.3339 1.36293 -3.49782 -0.934611 3.85678e-06 -2.99546e-07 -2.23123e-05 
56 1 0.659781 13.26 47.281 0.18752 2.81961 1.51754 -3.13039e-06 -2.43126e-05 4.60605e-05 
57 1 23.9879 46.9645 38.534 -4.34138 1.19446 -1.35346 4.41507e-06 3.98141e-06 2.02299e-06 
58 1 45.0866 52.4305 32.2999 0.708654 -2.29314 1.85369 -6.61721e-06 -6.08874e-07 3.92197e-06 
59 1 50.7463 21.4117 27.2266 1.70937 2.73938 -3.44278 -2.99641e-06 3.98129e-06 1.26335e-05 
60 2 36.0276 18.8593 29.6737 -0.529065 -0.189108 1.76311 -3.14561e-06 2.44029e-06 9.29424e-06 
61 2 5.00045 30.8935 39.5851 -2.39328 -1.89338 1.70811 -1.55749e-06 -9.18931e-06 1.61448e-05 
62 1 48.4744 10.0645 17.8777 -1.14348 3.15141 -1.69833 -3.63679e-06 1.8753e-07 -6.51172e-08 
63 1 44.7984 48.6226 2.23424 3.91832 1.28763 -0.63095 -1.33503e-05 -7.1492e-06 -9.7336e-06 
64 2 14.3936 11.8595 32.3615 1.25757 -0.587334 0.4288 6.573e-06 9.94483e-07 1.68975e-06 
65 1 39.2772 50.5328 23.5211 -2.81057 2.96499 0.600018 -9.90069e-06 -4.00627e-06 4.23671e-06 
66 1 19.8439 48.8302 41.0894 -0.586555 1.89822 3.16711 -8.52047e-06 2.88576e-06 -3.33542e-06 
67 1 16.3699 37.714 12.5708 0.281175 1.07761 0.907621 -1.13022e-05 2.89078e-06 3.201e-06 
68 1 15.099 33.6048 48.5309 2.28473 -0.339554 3.36223 -8.44813e-06 5.24259e-06 -1.69425e-05 
69 1 49.9291 18.7672 11.0467 1.94765 1.04207 -3.65941 4.32292e-06 4.82152e-05 1.73939e-06 
70 2 17.4946 15.0064 25.1256 -0.744429 1.29882 -1.30174 6.50345e-06 1.8588e-06 -3.40389e-06 
71 1 13.6422 33.6306 5.79796 1.44722 2.38656 1.30473 -1.00685e-05 2.15946e-05 2.54145e-06 
72 1 5.25389 -0.28128 2.54647 0.162317 0.465203 -0.84863 -1.65694e-05 -1.40376e-05 -1.09088e-05 
73 1 3.31206 4.82718 36.03 2.75617 -0.265878 -3.87155 -1.43536e-07 -8.09373e-06 2.14751e-06 
74 1 37.2175 23.4664 6.30559 2.30598 -0.292733 -0.702123 1.37118e-05 2.04361e-05 1.31731e-05 
75 1 47.7079 47.1873 5.91366 0.369492 1.86033 0.757352 -2.06158e-05 3.81323e-06 -7.40569e-06 
76 1 37.2265 50.3581 41.7288 0.452393 0.660333 2.22265 -1.26013e-05 5.69099e-07 -2.32168e-05 
77 2 35.8307 12.357 9.80301 -1.38735 -0.218045 2.30028 1.84337e-05 3.36191e-05 1.2346e-05 
78 1 33.983 16.405 26.338 -0.32452 -2.62914 -4.68386 3.62203e-06 -7.54145e-06 1.45319e-06 
79 2 34.5738 53.0192 23.3014 0.156466 -0.0481111 -0.200584 7.09894e-07 -1.78868e-06 -1.54757e-05 
80 2 35.2207 21.8208 34.5241 0.77915 -0.0813712 0.315777 1.66865e-05 -9.36945e-06 -3.3186e-06 
81 1 38.9395 49.6782 -0.284908 -1.01034 1.79924 1.19224 9.62792e-06 -2.74014e-05 1.63187e-07 
82 1 41.0798 13.9127 48.6643 -0.91072 1.17479 -4.59942 6.42261e-06 -1.36797e-05 7.07092e-06 
83 2 9.54049 16.5397 21.3432 0.0737624 -1.16668 -0.403577 2.54303e-06 8.44784e-06 -4.93073e-06 
84 1 40.5271 48.0129 17.9803 0.740901 0.471323 -0.32551 -3.67189e-06 -1.01997e-05 7.07968e-06 
85 2 24.7975 15.5975 16.0944 -1.0754 1.14082 0.566236 -1.39276e-06 6.6995e-06 6.99644e-06 
86 1 2.69471 45.8242 1.23657 -0.392152 -0.153082 -1.03029 -1.11879e-05 1.47887e-05 1.14957e-05 
87 1 2.76279 41.8152 1.75305 0.985026 0.500472 -0.208606 5.34041e-05 2.10948e-05 -2.06115e-05 
88 1 27.3328 40.8983 6.69688 -1.55135 0.596425 -1.10214 1.73614e-06 2.83029e-06 -1.38902e-05 
89 2 -0.628453 19.7855 7.63625 0.886341 0.180394 1.56673 5.49663e-06 -3.4415e-05 4.16491e-05 
90 2 26.4148 41.1544 32.4915 1.66189 1.31059 -0.128609 -2.01194e-05 7.29148e-05 -5.17722e-05 
91 2 13.9286 48.6024 24.728 -0.225042 2.07706 -0.912131 4.57508e-06 6.93765e-07 -1.19637e-06 
92 2 30.5379 53.0579 42.8799 0.243699 -1.59259 -1.8432 -2.77879e-06 -1.92931e-05 -1.91356e-05 
93 1 -1.02991 31.2974 -0.317222 -0.72356 -1.31802 0.801518 4.93547e-06 -0.000143404 -0.000173508 
94 1 41.3014 17.4037 39.4858 0.763822 3.59429 -3.75968 -8.89176e-06 3.22252e-06 -7.86288e-06 
95 1 45.4611 43.793 22.9385 -1.68527 2.978 0.411557 -2.25544e-06 -6.32603e-06 -1.69124e-06 
96 1 20.2689 11.6515 14.8271 -0.255403 1.82942 1.51111 -6.52916e-07 5.42849e-06 -9.50923e-06 
97 2 15.9162 14.7152 0.230169 0.153498 -0.631577 -1.01674 5.72609e-07 -1.6218e-06 5.09708e-06 
98 1 35.0684 33.6146 13.3488 -1.05216 1.10644 -1.09787 -2.84135e-06 -6.46948e-06 -2.05296e-05 
99 2 39.6099 6.38153 0.268251 -1.28712 0.540001 -0.516076 -1.61879e-05 -2.90398e-06 2.89275e-05 
100 1 47.6384 17.7927 6.62255 -2.12037 -2.40004 3.13372 -3.28627e-05 2.18558e-05 2.46778e-05 
101 1 27.5525 27.8566 18.9517 -1.88082 -0.117401 -2.06042 1.25143e-05 2.82323e-06 1.14026e-05 
102 2 1.8731 19.9775 32.3597 -1.02643 -0.382911 -1.3945 1.26281e-05 -5.66147e-06 -9.61748e-06 
103 1 38.2513 14.2308 22.3445 -2.10909 0.897464 -2.54935 1.25517e-06 -6.46765e-06 3.23239e-06 
104 2 42.0421 25.8212 35.184 0.3363 0.137727 0.28386 1.48973e-05 -2.08716e-06 1.3404e-06 
105 2 44.2838 46.9709 33.809 -1.72317 -1.38042 -0.675739 -3.76331e-06 -2.35075e-06 -4.58095e-06 
106 1 10.8174 8.3048 12.6515 -0.784502 2.61056 -1.40666 2.96867e-06 1.10557e-05 3.05984e-06 
107 1 17.51 13.0203 21.1286 -5.02811 -1.78008 3.20797 -1.14382e-06 -2.97444e-06 -8.95359e-06 
108 1 -0.396679 29.9151 48.4872 1.59748 -1.52352 0.505211 1.15372e-05 1.89161e-05 -7.1864e-06 
109 1 4.4384 47.5363 46.395 2.85621 -0.536598 2.68102 -6.55274e-06 4.8097e-06 -1.737e-06 
110 1 37.2775 42.2411 33.7847 -1.97463 -2.57526 2.28574 2.30429e-05 -4.94266e-07 1.80822e-05 
111 1 23.777 36.6263 38.6028 -0.994346 -2.95474 -0.996284 4.22579e-06 7.28084e-06 6.05001e-06 
112 1 5.28246 10.5976 36.8887 2.91957 -2.17521 0.50005 -3.99941e-07 2.11493e-06 -2.25492e-06 
113 1 34.0279 22.4283 38.56 -0.359937 0.50894 1.20763 -6.03503e-06 -1.87874e-05 -3.55392e-06 
114 1 18.739 0.671861 10.3197 0.055019 -1.09439 -1.26258 -5.36155e-06 3.76055e-06 -1.08274e-05 
115 1 42.1827 33.7065 26.6852 -1.31972 -1.59432 -1.50404 -5.28661e-06 -5.41536e-06 -2.84854e-06 
116 1 45.1122 5.16974 30.2223 2.5207 -3.34595 4.45515 -3.66705e-06 3.731e-06 7.70598e-07 
117 1 18.5381 0.441199 18.8111 1.28151 1.36139 0.0278517 -1.05915e-05 -5.65502e-06 -1.84654e-05 
118 2 32.5628 13.5854 13.912 0.143212 -0.87097 -1.47924 -0.000100369 3.59566e-05 -6.45719e-07 
119 1 0.378626 15.225 14.6808 3.24729 1.07142 -3.02188 -1.50847e-05 1.20911e-06 2.58273e-05 
120 1 33.7271 36.4203 40.9682 -0.55383 -0.345018 2.21267 -7.54021e-07 7.72302e-06 -4.62761e-06 
121 1 15.501 25.5699 2.56838 -1.62621 1.30877 -0.146863 6.8398e-07 1.42385e-06 9.55666e-07 
122 1 31.8005 51.1208 3.80337 -0.204865 -0.835273 -1.55752 6.36296e-06 8.77144e-06 -9.85771e-06 
123 2 36.3743 2.02704 21.7113 0.358446 -1.23908 -1.75737 -1.53819e-06 -1.0933e-05 -7.99758e-06 
124 1 4.58587 5.83081 0.260993 -3.28883 0.616916 1.2583 -2.64001e-06 1.0336e-05 1.35255e-05 
125 2 9.73428 24.189 48.3812 0.20007 -2.30575 -0.0162697 1.32589e-06 1.95746e-05 1.77872e-05 
126 1 9.72452 51.3811 10.5113 2.10641 1.15035 -1.87846 -1.00692e-05 3.36529e-06 -9.83554e-08 
127 1 49.391 27.7103 18.0673 1.01855 0.965172 -3.09744 1.2884e-05 7.02511e-07 -8.52334e-06 
128 1 36.5346 48.0835 47.8306 -2.753 2.48713 0.20974 -8.33919e-06 -6.79405e-06 -1.22994e-05 
129 1 30.452 32.9026 40.0588 -0.550713 0.914582 -1.75919 -2.12566e-05 -1.91914e-05 -5.60648e-06 
130 2 8.24695 41.1091 25.1957 0.945564 -0.47905 -0.550593 -2.22621e-06 3.31708e-06 2.35976e-06 
131 1 31.446 28.6657 23.6709 -0.897558 1.70497 1.47067 4.97292e-06 -1.7305e-06 1.50405e-05 
132 1 41.3367 27.6474 19.8588 -1.75702 -1.47425 -1.21758 8.68867e-07 3.46616e-06 1.16042e-05 
133 1 13.3169 51.1291 38.1656 -3.02204 -0.787798 -0.472052 -6.05459e-06 7.4627e-06 -5.20628e-06 
134 2 13.2048 29.8357 37.7168 -0.546708 -1.30983 0.505363 1.49898e-06 4.79731e-06 2.371e-06 
135 1 30.6921 4.73715 33.1856 2.84747 1.359 1.52298 -1.02186e-05 -3.86136e-06 -1.37211e-05 
136 1 16.0781 6.57618 0.757544 -0.494375 -1.36439 -1.65918 -1.81095e-06 2.29909e-06 -1.65754e-05 
137 2 4.73754 21.9677 29.8374 -0.613522 1.69093 -1.17846 1.39974e-05 -1.57706e-05 1.57728e-05 
138 1 48.7651 14.1563 1.94239 1.14864 1.05861 3.64679 2.97622e-06 -2.34056e-05 -1.0844e-07 
139 2 44.6903 30.4976 10.6228 -1.17639 1.2117 0.280252 -1.01227e-06 0.000104561 -5.21455e-05 
140 2 37.5751 23.257 39.5004 1.51406 -1.2842 0.530738 8.99746e-06 1.13896e-06 5.99387e-06 
141 1 41.9303 15.4163 26.3065 -0.731088 -1.59081 -0.442261 -3.28973e-06 1.66107e-06 6.21168e-06 
142 2 50.6199 10.4065 14.0457 -0.906558 1.57877 -0.0757204 5.87531e-06 1.66602e-05 8.46079e-06 
143 1 1.88692 21.5679 28.3716 -0.941293 3.75149 0.435363 -3.54967e-06 9.10322e-06 1.47002e-05 
144 2 19.5885 0.548742 40.8284 -0.879729 0.495709 1.23179 -7.53473e-06 3.12541e-06 1.56342e-07 
145 1 36.1641 20.2815 13.8883 1.49719 0.30566 -2.79803 3.9848e-06 1.88688e-05 1.02605e-05 
146 1 8.04254 19.0275 50.0791 0.186031 -0.0474854 2.0051 -1.34524e-05 8.4945e-06 7.05045e-06 
147 2 15.3026 50.3339 26.144 0.478159 0.378933 1.22462 -1.01661e-06 3.73058e-06 -8.72678e-06 
148 1 13.8727 17.0888 32.3704 -2.21241 2.86015 1.26565 2.92413e-06 -2.14577e-06 5.88841e-06 
149 2 22.1541 21.9318 36.9347 3.37588 -1.73721 0.280412 2.61771e-06 6.42255e-06 -6.13662e-06 
150 1 14.4326 9.684 18.2398 0.553932 -0.708911 -1.63862 -7.19472e-06 8.38583e-06 8.95994e-06 
151 1 26.6821 23.0065 50.4536 -0.291976 0.886175 1.00644 -3.18251e-07 -3.25445e-06 -2.0668e-06 
152 1 32.1079 40.1205 4.27882 -2.37005 -3.96005 4.09991 -5.77847e-06 -7.76083e-06 4.4773e-06 
153 2 5.82851 13.09 3.83937 0.44717 1.49123 0.449568 1.47281e-05 -2.8355e-05 3.5448e-06 
154 2 17.3578 20.0694 34.9625 0.483861 1.93149 1.53249 4.73987e-06 -2.69345e-06 -9.55855e-06 
155 1 4.45573 28.0292 11.9394 -0.12037 0.159378 0.243216 1.10494e-05 -9.99799e-06 2.88469e-05 
156 1 46.2807 18.9167 8.19839 2.89432 -1.62621 0.280235 1.5231e-06 4.54365e-05 -1.26402e-05 
157 1 14.3511 -1.47148 34.9691 3.64991 -1.86856 1.40173 -1.59222e-05 -1.54687e-06 -9.89773e-06 
158 1 17.0108 52.2365 26.6674 -1.10133 0.12528 -0.577322 7.60606e-06 -1.91016e-07 -2.29547e-07 
159 2 17.4185 40.1244 16.0395 0.555081 -1.54942 1.12223 5.97451e-06 5.77165e-06 -6.79122e-06 
160 1 19.17 19.9857 43.0518 0.431781 3.92202 -2.66652 4.8752e-06 -8.243e-06 -7.03018e-06 
161 2 13.683 52.3387 49.2248 -1.00057 -0.00191315 0.605482 -5.45592e-06 5.78615e-06 2.76064e-07 
162 1 -0.381152 26.7767 13.1475 -0.79929 4.99419 -2.3866 2.96953e-05 -7.98134e-06 -6.75911e-06 
163 1 8.23486 4.80755 35.8564 1.71704 -2.8701 -3.10065 9.72366e-07 6.80934e-06 1.82995e-06 
164 2 50.7682 44.001 27.4254 -0.762369 -0.438499 -0.465093 -5.41014e-06 -1.67219e-06 1.10905e-07 
165 1 33.924 10.9487 41.398 -2.98212 2.93065 3.7563 -7.89074e-06 -3.41938e-06 -2.29688e-05 
166 1 28.6961 21.2171 43.2576 -4.93053 1.90037 -0.22154 3.08567e-06 7.97716e-06 -1.13508e-05 
167 1 35.9722 15.762 18.3892 -1.20466 -2.6217 2.29139 2.32678e-05 -2.82575e-05 -9.29051e-06 
168 1 8.4337 6.18545 44.7048 -2.70425 0.0648509 1.25158 -7.35896e-06 5.47137e-06 -1.55385e-06 
169 2 15.8444 11.2526 6.63412 -0.531751 1.50475 -0.17799 8.87544e-06 9.3407e-07 -5.36736e-06 
170 1 28.9422 23.6113 39.3668 2.94864 1.05409 4.38173 6.18413e-06 -2.21361e-06 5.65903e-06 
171 1 6.57846 0.228612 6.57867 -0.658673 -0.88527 -0.347814 -1.33304e-05 -2.38798e-06 7.24839e-06 
172 1 7.95147 22.1551 35.2763 1.25281 -1.35157 -1.39875 -9.31125e-07 1.29667e-05 -7.5288e-06 
173 1 44.5592 27.2533 7.95212 2.51441 1.69101 -0.576165 4.82013e-05 3.07643e-06 -3.93642e-06 
174 1 47.8253 20.2611 10.9725 -1.03675 -1.24588 -2.31937 -3.81184e-05 -2.45293e-05 -3.20316e-05 
175 2 19.1845 33.8814 1.61153 2.50028 2.02907 1.29966 -7.82008e-06 2.20808e-06 -4.32204e-06 
176 2 34.6559 51.3644 50.056 -0.543796 0.539884 -1.57543 4.95139e-06 -1.48921e-05 -1.36661e-05 
177 1 9.72436 12.6372 17.9586 -2.98617 -1.09668 -1.63234 1.15066e-05 -2.43131e-06 -2.09369e-06 
178 2 50.9641 21.6061 43.1546 1.39387 -0.293341 -1.93646 2.87929e-05 2.02489e-05 2.79628e-05 
179 2 12.9794 24.4919 12.2475 0.364084 1.64751 0.309024 1.16408e-05 -1.40932e-05 5.63372e-06 
180 2 50.9905 52.3825 16.6369 -1.43908 -1.36132 0.913483 7.83014e-06 -1.62905e-06 6.33781e-06 
181 2 8.08006 41.527 0.882918 0.324826 0.309658 -0.246949 9.85156e-06 -6.35544e-07 1.3468e-05 
182 1 42.4013 8.31916 33.9341 -2.02411 -2.26673 3.30634 1.49257e-05 -8.95715e-07 -9.27516e-06 
183 1 9.8392 16.8672 18.6992 0.784486 -0.656138 1.09041 1.9994e-06 -2.37234e-06 3.64419e-06 
184 2 29.0248 7.18694 24.7532 -0.533555 2.24031 -1.76723 1.18465e-06 -3.09832e-06 -1.42846e-05 
185 1 48.0308 23.6054 1.96493 -2.09953 0.835641 -0.0323771 2.87274e-05 4.87836e-05 1.91974e-05 
186 2 44.395 13.4655 12.5104 -0.0874827 1.2558 -0.137982 -1.1039e-06 -7.19998e-06 2.91669e-05 
187 1 -1.03407 52.9857 4.04897 -3.76095 -1.19168 -0.894104 -2.26136e-05 3.61053e-06 1.43072e-05 
188 1 35.3023 42.2077 11.1608 3.38246 2.76976 -3.18669 5.82613e-06 -8.74351e-06 -1.08896e-05 
189 1 37.5444 43.9157 44.7798 0.729628 -3.50167 -3.55601 -6.99024e-06 -2.71817e-05 -7.94429e-06 
190 2 17.8584 23.2024 31.4562 1.32707 -2.29606 0.0634524 -1.0982e-06 6.7521e-06 -6.8213e-07 
191 1 36.6207 8.15418 19.6676 -3.65038 1.88512 0.98454 -5.05651e-06 -2.35724e-06 2.21315e-06 
192 1 25.7875 32.52 21.6626 -1.43772 0.377729 1.39632 4.53496e-06 -7.14433e-07 -3.27279e-06 
193 1 43.5132 43.6858 3.04945 1.30618 -2.43261 1.46071 -9.15717e-06 -9.6563e-06 1.77054e-05 
194 1 22.8733 30.8056 25.9165 -0.207051 0.481144 0.602399 -2.47463e-07 7.33336e-06 2.70717e-06 
195 1 4.25895 31.9338 20.1233 0.557327 -0.435649 0.0991263 -1.26271e-06 1.19837e-05 1.06748e-05 
196 1 39.8224 10.5458 37.5677 -0.297241 0.429861 -2.45622 5.97074e-06 -1.76308e-05 3.40824e-06 
197 2 21.4137 7.25901 42.2569 -0.32165 -1.97242 -0.505949 -5.20518e-06 -3.74374e-06 -1.31494e-05 
198 2 11.9361 15.5191 5.51455 2.19468 -0.538096 -0.0427735 4.52135e-06 1.43186e-05 1.00308e-05 
199 1 41.1101 28.2869 22.0976 -1.86947 0.858211 -2.18357 6.57951e-06 -3.97503e-06 4.89804e-06 
200 1 44.519 7.0393 26.2329 1.63744 -0.616 -0.257212 -6.83692e-06 -4.02335e-06 -5.88923e-07 
201 1 0.705731 50.3214 30.3417 3.24585 -0.9668 -1.55291 -3.56631e-06 2.21879e-06 1.91993e-06 
202 1 26.5613 28.533 16.7958 -0.17595 -1.05318 1.57551 -4.44809e-06 -1.43303e-06 -4.03398e-06 
203 2 34.6145 26.7573 19.7006 0.23676 -1.164 -1.13495 5.02337e-06 5.50089e-06 8.44664e-06 
204 1 10.4856 37.5662 26.8842 1.92488 1.88757 1.23923 4.50564e-06 1.2877e-05 -7.43508e-06 
205 2 26.968 15.9312 -0.0696246 -0.300733 0.555089 2.27768 7.20727e-07 -1.09036e-05 -5.06338e-06 
206 2 32.0926 7.41945 46.9741 -0.412862 1.76309 -1.2987 -4.39078e-05 3.40417e-06 -4.68651e-06 
207 1 34.0852 2.01558 12.7703 -1.21513 2.80288 0.116369 1.82278e-06 -6.318e-06 -1.1582e-05 
208 1 20.4246 48.632 18.3805 0.429651 -0.532012 -1.74934 -8.38555e-06 8.89411e-07 -1.35167e-05 
209 2 8.3504 23.4481 32.636 1.64143 -1.73839 -0.844387 8.9326e-06 -9.61227e-07 1.55172e-05 
210 1 45.2782 24.1351 24.6094 -2.55976 -0.0265356 3.38673 1.26233e-06 -3.68644e-07 -6.56112e-06 
211 1 47.1743 43.2443 33.4222 0.777269 1.46258 3.04628 3.46769e-06 -7.39742e-06 -1.48036e-07 
212 1 0.416321 35.1892 18.5646 3.00482 -0.431183 3.52404 1.68359e-05 -1.05778e-05 3.74199e-06 
213 1 -1.25526 44.7189 23.8123 -0.118133 -1.53199 2.97318 1.1015e-07 7.74472e-06 -1.55371e-06 
214 2 20.0122 0.406519 28.3338 0.0460053 1.41792 0.321734 -7.69411e-06 1.16361e-05 -9.48846e-06 
215 2 35.8091 12.5728 25.1599 -2.11756 0.741775 0.0259787 -6.29014e-06 -1.21024e-05 -4.37408e-06 
216 2 2.32462 26.8864 13.2352 0.0744345 -0.768301 0.964125 -2.2284e-06 2.90922e-06 -7.29128e-07 
217 1 27.5985 47.0478 17.4911 -2.65563 -0.401094 0.0267871 -1.03942e-05 4.24865e-06 -1.7257e-05 
218 1 12.7448 4.15137 5.84642 -0.0271312 0.320861 -0.560041 -9.75148e-06 -3.12465e-06 -5.33591e-06 
219 1 9.83984 17.8625 -0.793723 2.85502 -0.270798 -0.85022 3.23831e-06 -8.85634e-06 8.38092e-06 
220 2 8.86347 45.773 17.2124 0.583582 1.28557 0.0106413 -3.83095e-06 2.53541e-06 5.95877e-06 
221 2 14.2919 12.2267 18.6659 1.17668 0.630353 1.26732 4.7957e-06 -1.25478e-06 1.36441e-05 
222 2 13.6422 12.9932 30.0249 0.597819 -0.945273 0.361219 -6.91044e-06 1.3841e-05 8.37238e-06 
223 2 -1.22849 31.3114 2.65297 -0.921563 -0.109677 0.811017 0.000371564 -0.000172204 -2.80541e-05 
224 1 29.2819 18.1859 31.6405 -0.225476 0.9266 -0.169469 8.01944e-06 -5.38002e-07 4.64365e-06 
225 2 28.9521 32.6311 17.1565 -0.651487 -0.34557 1.12982 8.5538e-07 -2.59534e-06 2.33428e-06 
226 1 38.1572 29.2248 29.3392 0.197175 -1.36004 4.23089 1.68697e-05 -8.44159e-06 5.14241e-06 
227 2 34.7653 28.0996 14.7121 1.95522 -0.301351 -0.900503 -1.34198e-05 -1.09071e-06 1.4798e-05 
228 1 7.95263 2.65531 37.9526 -0.803759 -0.677249 2.40341 -8.41975e-06 6.06839e-06 3.15988e-06 
229 1 5.67093 10.8546 0.0927028 1.52168 -0.777512 2.06239 -5.04997e-07 -8.26792e-06 1.08542e-05 
230 1 44.23 0.527424 4.53166 -2.18961 0.999494 -0.583133 2.75848e-06 1.70811e-06 -4.34856e-06 
231 1 37.2088 3.95312 23.844 1.85517 -3.24657 1.11365 -5.85628e-06 -6.04632e-06 -9.02322e-06 
232 2 48.5655 30.8154 -1.01395 1.69781 -1.02305 0.632424 0.000159488 3.55102e-05 0.000214011 
233 1 22.1527 23.5373 2.63102 -2.9097 -2.29367 0.231901 1.38723e-07 -9.68475e-06 -7.02391e-06 
234 1 -0.0421146 2.50651 31.0291 -0.353045 -2.03966 0.537442 -2.59473e-06 4.19462e-06 8.50427e-07 
235 1 18.4469 33.5864 30.9719 1.05762 0.792446 -1.81174 1.40264e-05 -8.62072e-06 2.84177e-06 
236 1 43.1578 30.2784 25.3595 -0.869789 3.10004 0.387556 1.10998e-05 -3.79948e-06 1.75429e-06 
237 1 8.43266 -0.750924 5.04444 2.32913 -0.606544 -1.69999 -2.39647e-05 7.5658e-06 -2.69725e-07 
238 2 36.4694 3.99892 30.7059 0.800761 -0.686902 1.35948 -8.45282e-06 -1.18166e-05 -1.13543e-05 
239 2 19.8106 49.801 43.939 0.336197 1.54604 -2.31581 -6.13543e-06 1.10825e-06 -3.00503e-06 
240 2 8.68342 20.7813 42.6438 0.171903 -1.10221 0.0966571 1.38573e-05 1.35325e-05 4.33931e-06 
241 1 44.8091 11.9371 17.6864 2.27237 -2.7647 2.6708 -1.1189e-05 -4.3211e-06 4.15287e-06 
242 2 43.9704 15.7859 28.422 0.217194 -0.588768 -0.0605686 8.67857e-07 -6.15326e-06 1.11129e-05 
243 1 21.9396 48.4008 39.5884 2.78815 -2.84222 -0.880839 -9.79919e-06 -2.23894e-06 -3.78733e-06 
244 1 20.6219 0.0659139 11.8243 4.10718 2.16469 -2.25401 -3.65715e-06 4.34173e-06 -1.13414e-05 
245 1 37.2983 34.8769 27.4483 0.369665 2.67715 1.87304 -5.82377e-06 -1.76241e-05 8.65563e-06 
246 1 6.95879 4.15253 31.3427 1.83699 -2.95759 -2.326 6.57892e-06 2.99397e-06 -2.29697e-06 
247 2 20.0861 2.43635 17.6043 0.912804 -1.18202 0.954001 -5.85603e-06 2.18378e-07 -1.22342e-05 
248 2 21.0704 11.8618 17.2404 0.774961 0.521868 1.19086 -5.54636e-06 4.60739e-06 -1.54333e-06 
249 2 18.5562 3.28618 7.01394 -0.293213 0.806974 -1.46009 -3.81556e-06 -7.45376e-07 -8.45096e-06 
250 1 24.6754 24.8383 33.7656 1.83937 1.17783 2.36661 1.4062e-05 -5.47202e-06 -6.55164e-06 
251 2 10.5351 32.9968 19.748 -0.822993 0.230177 -2.07376 7.09157e-06 -5.78971e-07 -1.66228e-06 
252 1 19.4598 48.0103 6.28924 -2.42677 2.35449 2.07385 -8.76649e-06 5.54627e-06 -4.94392e-06 
253 1 -1.46766 6.98137 7.73364 -0.115031 -0.528004 -1.66206 1.40404e-05 -2.67954e-06 6.1469e-06 
254 1 44.6155 25.5853 50.5735 0.908224 0.359477 4.69872 -5.47383e-05 1.95717e-05 3.7629e-05 
255 1 47.4958 20.9414 45.7501 4.43598 -1.81931 0.198405 3.9589e-05 2.84025e-05 -8.48714e-06 
256 1 39.5751 0.284856 50.5114 2.71014 0.939247 2.74293 2.79598e-06 -1.14818e-05 1.24827e-05 
257 1 41.1109 39.4923 33.6648 0.386585 -2.87065 0.636455 2.08367e-05 -9.97131e-06 -6.21947e-06 
258 2 44.8092 33.5955 46.0554 0.669208 0.796614 -0.846484 3.8544e-06 -6.25778e-06 -1.30598e-05 
259 1 50.7824 37.7028 24.3487 -0.0958805 3.22098 0.415777 -9.97644e-06 -2.52811e-07 1.23991e-05 
260 1 14.1806 -1.39201 3.01352 -2.86808 0.0348496 -3.1851 -6.33283e-06 3.04316e-06 -2.68093e-06 
261 1 34.1051 45.8925 32.4454 1.36467 -1.359 0.00843246 3.5684e-06 -2.16174e-05 1.16735e-07 
262 1 45.1307 21.4064 18.7447 -1.81965 1.84127 1.47704 -8.42476e-06 4.24251e-06 1.47695e-05 
263 1 44.7685 24.3034 31.5618 -1.71347 -1.35859 1.09789 -7.75512e-06 -8.73387e-06 9.32076e-06 
264 1 3.83945 45.3156 15.9986 0.383935 -4.97951 1.70282 4.43746e-06 8.9729e-06 -4.90514e-06 
265 1 20.5019 13.3593 25.0533 1.82458 0.915518 2.84235 -3.43402e-06 -1.0088e-06 -1.51849e-06 
266 1 50.6156 52.073 35.2708 -1.52686 1.31463 -0.933823 -3.22919e-06 1.33399e-05 1.33761e-05 
267 2 0.51415 24.2654 13.6043 -0.456881 1.1579 1.101 1.66837e-06 8.1866e-06 2.97153e-05 
268 1 21.6277 51.7575 26.5753 1.3584 -3.22738 -0.323072 1.40847e-06 4.69147e-06 -2.01371e-06 
269 1 12.4566 21.3488 40.5501 -1.7871 0.518249 -2.95188 9.19058e-07 -8.65989e-06 3.15855e-06 
270 1 45.5648 49.8113 23.6591 -0.243037 -1.21052 2.72489 3.07547e-06 -1.17173e-05 7.35471e-06 
271 2 43.3563 35.7038 8.86716 0.11553 1.60878 -0.626706 -7.91292e-06 7.65691e-05 -2.03332e-05 
272 1 2.7523 24.6959 36.386 0.579728 -1.42352 0.82037 1.08708e-05 8.50733e-06 2.28629e-06 
273 1 36.3224 39.9446 22.9225 3.19269 2.2077 3.24479 -9.46511e-06 -2.63575e-06 7.89683e-06 
274 2 45.9448 37.412 -0.0312178 0.779549 -1.90062 0.998198 6.88441e-05 -6.59147e-05 1.16443e-05 
275 2 22.8766 -0.65128 32.3319 -3.19077 0.602677 -0.375517 -5.0826e-06 -5.65129e-06 -1.61833e-05 
276 1 16.1369 8.09912 21.8476 -1.84869 -3.21818 -0.82708 -3.80061e-06 4.21445e-06 -4.77443e-07 
277 2 43.0497 19.0242 0.845473 1.84967 -0.47689 -0.573626 -4.13339e-05 -2.84497e-05 -5.82107e-06 
278 1 28.9077 35.4768 48.4228 -1.67928 0.221346 1.72755 1.52627e-06 4.8143e-06 -5.0073e-06 
279 1 30.9865 7.15923 18.7975 0.680968 -3.14963 -0.930911 -1.52755e-06 1.13397e-05 -2.26919e-05 
280 1 16.3049 53.1258 38.4978 1.35491 -0.828526 0.0748886 -2.73488e-05 9.47168e-06 -7.83754e-06 
281 2 22.6184 45.9942 29.341 -1.87595 -0.742841 0.93908 -4.99163e-06 2.0498e-05 -9.62144e-06 
282 2 10.0793 4.68594 27.2267 0.365852 1.41527 -0.273217 -1.85197e-05 1.72169e-05 -9.82314e-06 
283 1 19.4963 19.7577 50.2496 -1.25247 0.892647 1.14005 3.52337e-06 8.42674e-07 -4.3746e-06 
284 1 19.4401 53.2259 27.3364 -1.41159 -2.53578 0.957465 -1.97895e-05 7.04623e-08 -9.43505e-06 
285 1 26.8648 20.4003 8.76932 0.593519 0.0940975 -1.80753 6.93771e-06 1.47781e-05 -1.4255e-05 
286 1 28.7063 45.2336 19.124 -0.691385 0.510665 -1.27482 1.06013e-05 3.32865e-06 -2.90131e-07 
287 1 0.30348 52.4519 11.8172 -2.86906 -1.66802 4.45078 -1.29476e-06 -1.63105e-06 -3.20615e-06 
288 1 46.1335 20.1165 12.6507 1.66659 -4.46311 -0.91167 4.97476e-05 9.0324e-06 -3.02025e-05 
289 1 29.7104 26.6388 36.9299 2.63368 -1.29579 -0.875488 -3.81326e-07 1.48363e-05 2.73302e-05 
290 2 21.7379 38.4059 46.4197 0.777504 0.435592 1.91285 9.71684e-06 3.17397e-06 -8.20096e-06 
291 2 26.7868 42.0846 16.6847 -0.352163 -0.203345 1.66233 -1.08057e-05 -8.90872e-07 -7.20396e-06 
292 2 20.3969 9.49517 8.7781 -0.465561 -0.852428 0.590329 4.86901e-06 7.48975e-06 -1.6888e-05 
293 1 43.1352 35.3797 15.0245 -1.76216 1.3395 -2.22449 -2.55582e-05 6.40779e-06 1.9784e-05 
294 2 2.66506 43.7856 13.8449 -0.705065 2.08934 -1.11804 -8.30598e-06 6.42023e-06 -6.73026e-06 
295 1 22.8199 36.3852 47.3501 0.495776 0.286163 1.30169 7.30935e-06 1.18537e-05 1.40891e-05 
296 1 10.1629 39.955 27.0748 2.43203 2.05906 0.670131 2.93616e-07 1.10031e-05 -4.49708e-06 
297 1 -0.871214 1.36095 13.2922 -6.70319 2.02682 -0.501132 3.15944e-06 -3.51821e-06 1.16384e-05 
298 1 47.3085 34.8197 50.0076 0.787086 1.79875 3.89261 4.62454e-05 5.72918e-05 0.000126814 
299 1 6.81394 12.8807 11.9086 2.22083 4.90505 -0.650854 3.62061e-07 6.08047e-06 -1.03948e-06 
300 1 6.23662 30.8876 2.92076 -0.449216 -0.697168 -1.32946 5.07769e-05 9.80771e-06 7.61808e-05 
301 1 7.17926 24.2818 34.9654 -0.551748 -0.641205 -1.00846 1.208e-05 3.32216e-06 -7.84963e-06 
302 1 25.2481 25.4938 38.6586 -0.840861 0.347486 0.232866 1.69154e-05 -1.46791e-05 2.67846e-05 
303 1 28.5738 24.5985 11.2011 -0.778941 -0.220466 1.84073 6.06522e-06 6.71846e-06 3.55399e-06 
304 1 28.9526 27.6845 40.5231 1.02802 2.0237 -2.27212 2.07064e-05 -1.77922e-05 3.15671e-06 
305 1 21.5921 24.4177 37.1216 2.65622 0.927888 1.80665 4.61703e-06 -2.38433e-06 3.26141e-06 
306 1 24.3342 32.1649 37.2737 -3.25663 -0.598508 -2.00634 -3.99122e-07 4.1636e-06 -2.32467e-07 
307 1 2.56993 33.6383 15.3228 4.37327 -1.27619 0.528556 2.96067e-05 -2.00903e-05 4.10928e-05 
308 1 44.2384 32.3714 33.511 1.13735 -0.228178 -0.749006 1.45797e-05 -8.72603e-06 1.60702e-05 
309 1 8.65117 49.6153 36.8961 -2.71982 0.652815 2.36576 1.43828e-06 9.2145e-07 -3.28796e-06 
310 1 3.9094 53.3032 3.96618 1.98778 3.5219 1.43522 -7.45176e-06 -7.06171e-07 -3.16491e-06 
311 1 40.2999 20.3935 23.1894 -0.98133 -0.647092 0.247456 4.8234e-06 1.62265e-06 1.13523e-05 
312 2 33.2266 22.8915 36.1396 2.2925 -0.075139 -1.32281 1.41259e-05 1.01519e-05 -1.74488e-05 
313 1 22.2093 47.329 27.2381 -1.17487 5.25718 1.36733 3.3471e-06 -3.29097e-06 -7.36881e-06 
314 2 11.9176 5.9481 10.0098 -0.630132 -1.4141 -2.77916 1.2751e-05 9.22929e-06 -4.79322e-06 
315 1 40.4939 49.9268 27.8009 0.458576 1.13774 0.213068 4.3253e-06 -7.38483e-06 -1.59092e-05 
316 2 33.0753 -0.610917 41.87 -0.321218 1.1766 -1.32547 -4.78727e-06 -1.09989e-05 -2.14289e-05 