ITEM: TIMESTEP
21243
ITEM: NUMBER OF ATOMS
11520
ITEM: BOX BOUNDS pp pp pp
-1.35252 51.4925
-1.40558 53.5126
-1.32519 50.4522
ITEM: ATOMS id type x y z vx vy vz fx fy fz 
1 1 29.4142 51.0483 39.3775 -1.711 0.862021 0.874206 1.75702e-06 3.61891e-06 1.32889e-05 
2 1 33.3054 44.8409 15.3917 0.555112 1.96965 -2.3303 -1.66572e-05 -8.34251e-06 4.41385e-06 
3 1 19.2102 19.8804 24.922 -1.24314 -3.09408 -0.711267 -7.5627e-06 -9.52828e-06 -1.57002e-05 
4 2 34.3153 1.88929 39.6377 0.570264 -0.964156 -0.405941 4.94522e-06 -3.55327e-06 -2.28676e-07 
5 2 14.1402 1.79408 38.166 1.28301 0.975479 -0.122776 3.42666e-06 3.54447e-07 2.58589e-06 
6 1 -1.07947 34.5628 44.5799 0.781959 0.601488 -2.28757 1.30604e-05 4.23268e-06 1.29293e-05 
7 1 27.2642 20.8543 32.653 3.67079 1.31643 -3.22907 1.35698e-06 -1.63814e-05 -1.7557e-05 
8 2 50.8438 7.97609 34.5378 -0.0513331 -1.2551 -4.16789 -3.10482e-06 -6.13646e-06 -3.50069e-06 
9 2 19.1037 53.1231 1.91726 0.162384 -0.529493 -0.482538 -1.10002e-05 -9.06802e-06 6.09508e-06 
10 1 18.0111 28.6395 7.40209 1.41528 2.09313 2.76041 -7.2191e-07 -7.6474e-06 -1.55947e-05 
11 1 24.4591 19.205 5.92608 1.77489 -2.66814 2.57808 -8.52936e-06 -1.07103e-05 -6.04811e-06 
12 2 32.6319 25.9923 33.8321 -2.32547 0.638118 -0.218618 -1.29712e-05 1.58087e-05 9.81596e-07 
13 1 16.5465 2.70923 6.69586 0.00894949 -3.85774 1.91871 5.0328e-06 -3.7779e-06 -2.6572e-06 
14 1 23.7257 52.4456 0.170546 -2.52009 -5.26215 -4.63324 5.97534e-06 -7.98129e-07 5.92249e-06 
15 1 22.7313 4.1524 42.1517 -0.214542 1.04625 -0.197278 2.44795e-06 -8.70587e-07 1.1841e-05 
16 1 48.7411 29.0929 37.5478 1.16636 0.151317 -3.55451 2.46008e-05 5.65101e-06 -1.31734e-05 
17 1 47.6951 41.6336 30.5217 1.20296 2.04256 -0.696343 1.22927e-05 6.17345e-05 2.74579e-06 
18 1 11.5184 37.9349 24.3406 2.36075 -1.91108 -1.26283 2.01509e-06 1.84724e-06 1.56946e-06 
19 1 44.7228 35.544 3.45366 -0.270163 1.38121 0.994744 2.00792e-05 -5.63788e-06 -6.83508e-06 
20 1 31.1513 42.2198 40.3292 -4.01042 0.0698146 -1.60953 6.04574e-06 -6.19055e-06 8.34853e-06 
21 1 34.6942 39.4562 13.1137 1.65093 0.650842 -0.366319 -8.37894e-07 -1.23023e-05 -7.69773e-07 
22 1 6.989 45.2424 15.2563 -1.93725 -1.49999 0.40321 -8.84701e-06 -1.14297e-05 -9.03218e-07 
23 1 8.24021 0.468579 47.6621 1.51581 1.76475 -3.12359 4.2232e-06 7.1284e-06 -5.08805e-06 
24 1 19.5012 25.0402 21.1019 -2.37103 2.23564 -0.656599 -7.31389e-06 2.73793e-07 -1.00281e-05 
25 1 15.2542 28.2759 15.7724 -0.537273 1.62122 -0.809195 -8.36678e-06 -5.6865e-06 -1.39972e-05 
26 1 18.2665 16.6672 42.4861 -2.36203 -1.02046 -1.21452 9.38031e-06 6.2612e-06 8.76739e-06 
27 1 42.7951 12.6392 33.3529 -1.11115 0.987365 1.32935 1.54911e-05 1.9508e-05 -5.69263e-05 
28 1 13.1235 35.2063 7.30061 1.70709 1.80541 0.86603 -1.11867e-05 -4.49397e-06 1.28689e-06 
29 1 30.5652 14.8403 25.0878 -3.73786 0.277834 1.09045 -4.62929e-05 2.29409e-06 -1.05743e-05 
30 1 5.68007 43.7642 36.7155 2.88498 -2.89935 -2.14438 -3.09371e-06 8.56434e-06 2.91062e-06 
31 1 16.9575 52.4009 39.7447 2.21893 1.0593 -0.622724 9.73546e-07 2.80096e-06 2.90862e-06 
32 2 5.80166 26.4291 43.9226 -0.444453 1.41062 -0.8755 9.53667e-07 -4.71257e-06 9.46946e-06 
33 1 34.5048 35.1385 26.7642 -0.0328311 -1.48668 0.0777092 -2.39898e-05 2.40701e-05 1.44279e-05 
34 1 3.70784 15.0483 48.2148 -0.667438 -2.30228 1.50193 -1.052e-05 -4.89347e-06 -1.64465e-06 
35 1 2.6692 4.67306 9.49988 -3.25525 2.59899 2.36042 -1.77464e-05 -5.16588e-06 5.44503e-06 
36 1 39.0635 6.90721 12.4547 1.16039 2.81886 0.221662 -1.23662e-06 -2.57545e-06 1.76956e-06 
37 1 0.971412 38.1146 2.29513 1.75444 -2.27899 -0.411703 -1.56992e-05 2.41863e-06 7.81049e-06 
38 2 11.1769 3.15476 50.3384 1.28231 -0.455655 -0.769068 -4.4439e-06 -2.1306e-06 -1.52061e-06 
39 1 40.6902 40.7159 21.8005 -3.70963 1.87458 1.6638 -2.50581e-05 2.1476e-05 1.21285e-05 
40 1 26.0688 26.6158 27.4788 -0.886222 0.897045 2.77857 5.33978e-06 -5.44959e-07 -1.50194e-05 
41 1 43.1069 1.1036 0.0596995 1.83675 1.1348 1.25672 1.14098e-05 1.36701e-05 5.1551e-06 
42 1 48.0382 0.00524392 21.7193 -1.10606 -0.880572 -0.141895 -4.27954e-06 -7.34747e-06 1.24866e-05 
43 2 22.1336 46.7666 35.435 -0.516863 0.0408848 -2.29846 8.66083e-06 -7.73298e-07 1.38083e-05 
44 1 47.6576 20.3851 25.5305 -1.26676 1.06499 1.79356 0.000176095 -3.13461e-06 0.000112801 
45 1 0.291167 9.6581 17.7966 -3.19863 -0.979976 -4.57185 -7.53258e-06 1.00378e-05 2.39425e-05 
46 1 45.5534 17.1597 20.8107 -1.34835 0.204298 1.69601 1.49018e-05 6.15761e-05 1.22247e-05 
47 2 25.0967 25.1296 35.7433 -1.83442 0.480085 2.60204 -4.41692e-07 -1.96314e-07 -2.55904e-05 
48 2 16.3015 46.7595 30.6088 1.7033 -1.78635 -1.75837 2.00228e-06 -2.02588e-06 1.14201e-06 
49 1 11.6952 24.8248 40.8895 2.19904 2.36924 0.322188 1.12477e-05 -9.10889e-07 -2.37519e-05 
50 1 19.4909 7.7639 0.987998 1.54193 1.91987 -0.17853 2.15192e-07 -3.95191e-06 4.69778e-06 
51 1 6.89823 42.5269 7.92643 -0.578155 0.224042 2.50669 -4.33266e-06 1.94172e-06 4.86327e-06 
52 1 27.6136 49.3224 39.5282 -2.02714 0.101019 -2.51608 1.81247e-06 1.40903e-06 5.86515e-06 
53 1 18.2054 -0.291342 21.8047 -2.22358 -0.283835 -3.60392 -1.44557e-06 -7.61461e-06 -5.22673e-06 
54 1 17.2655 2.98448 37.0934 -0.298733 -1.50769 -1.06642 3.65411e-06 -3.8631e-06 7.10539e-06 
55 1 -1.21976 53.4856 8.4442 1.25471 -0.17371 1.88722 -2.00768e-05 1.24202e-06 3.76029e-06 
56 1 -0.869566 35.042 7.25285 2.02676 4.15997 0.186805 -5.5677e-06 -7.08109e-06 1.34947e-05 
57 1 16.91 49.0386 10.4707 -1.21628 -2.85535 3.40796 -2.52289e-06 2.49192e-06 1.06485e-07 
58 1 12.4179 48.3885 12.9129 0.445194 0.395427 -1.58161 1.10293e-06 -1.19781e-05 -7.46774e-06 
59 1 3.72786 33.6695 42.1972 3.52006 -0.8676 -3.70547 1.62539e-05 6.7047e-06 1.72929e-05 
60 2 18.1773 9.1466 38.2397 2.27243 0.96356 1.0344 -5.65878e-06 -4.91824e-06 1.00334e-05 
61 2 44.4402 17.9754 27.4692 0.573739 -0.540581 0.114041 -5.09334e-05 5.62259e-05 -4.4143e-05 
62 1 13.9864 52.614 48.7664 1.27521 0.238307 1.72156 5.60927e-06 -1.12729e-06 -2.40617e-06 
63 1 35.6625 44.1416 17.0423 0.631668 -3.18632 1.06256 1.80541e-05 2.41738e-06 -7.64084e-06 
64 2 44.0001 22.1188 -1.20211 1.29125 -0.482995 -2.28924 -1.87971e-06 -1.27778e-05 -1.71272e-05 
65 1 31.9675 15.344 29.1429 -0.885499 -0.37908 -1.10338 -1.58085e-05 2.14091e-05 -9.42146e-06 
66 1 22.5401 19.2896 15.1108 1.1542 0.0345439 -2.37345 -1.8625e-05 -1.21457e-05 -2.4806e-05 
67 1 17.1614 44.2277 10.846 -2.2746 -1.95458 -1.83511 -1.60786e-07 -8.1887e-06 -2.10432e-06 
68 1 0.325948 30.642 49.5284 -2.0087 -1.975 -3.12311 -2.60962e-05 -8.0535e-06 2.82771e-05 
69 1 27.6761 16.1931 12.9482 -0.640044 2.52478 2.00672 -9.55446e-06 -2.16398e-05 -1.61483e-05 
70 2 35.8675 21.6731 50.2131 -0.835386 -0.274406 0.823191 -1.44624e-06 -1.24275e-05 -4.0292e-06 
71 1 21.6547 27.3801 42.2136 0.0114562 -2.21768 -3.38109 -1.14493e-05 -3.90067e-07 -6.72482e-06 
72 1 10.3287 16.2591 30.5355 2.09916 1.868 -0.376811 1.05328e-05 -7.80772e-06 1.63428e-05 
73 1 11.6648 18.3064 1.67162 0.818486 2.26733 1.4128 -9.95602e-06 -4.31288e-06 2.50853e-06 
74 1 30.3873 38.6018 2.55374 -2.8842 1.51183 2.27678 -1.77176e-05 -1.14293e-06 -1.09706e-05 
75 1 27.8804 43.7662 4.73912 0.316527 -0.369225 0.46277 5.33357e-06 9.92503e-06 3.92559e-06 
76 1 25.0665 39.0444 23.7744 0.164215 2.41232 1.92382 -9.48101e-06 6.61648e-06 -3.62868e-06 
77 2 3.3038 3.52006 30.9992 -1.3285 2.54138 -1.27458 1.09474e-05 -1.35729e-06 -5.81907e-06 
78 1 38.6191 51.5035 49.0353 -2.15551 -1.57487 -0.623381 2.01189e-05 1.48257e-05 -1.91254e-05 
79 2 17.9898 17.8495 26.0372 0.503888 -0.207573 0.280229 -7.89714e-07 -7.89394e-06 -4.54326e-06 
80 2 32.2531 52.6263 14.6316 0.523103 -0.220424 -1.0642 9.00789e-06 -3.79683e-06 8.34335e-06 
81 1 44.5951 51.3966 33.5024 -1.29577 3.30041 2.21562 1.23281e-06 2.05918e-05 1.35272e-05 
82 1 23.3326 8.433 19.8913 0.159751 1.53223 -2.28719 -3.95396e-06 -1.7362e-05 6.55793e-08 
83 2 25.1757 18.5816 32.8441 0.178032 -0.849216 -0.620747 -8.78204e-06 -9.76032e-07 -1.55067e-05 
84 1 35.5433 17.6242 16.6761 0.615801 1.07507 2.86068 -1.21421e-05 -9.18348e-06 7.75954e-06 
85 2 28.4909 -0.591244 17.0094 0.248928 2.06484 -1.28013 1.65078e-06 -7.1993e-06 -1.04631e-05 
86 1 12.2684 40.8586 5.76835 -1.597 -2.89744 -3.03199 -1.19812e-05 -3.30824e-06 -5.2208e-06 
87 1 9.84808 53.2244 44.0042 -0.432252 -2.59014 -0.624544 7.06903e-06 -2.69124e-06 5.15069e-06 
88 1 31.4407 5.97071 19.826 1.11175 -0.410708 -0.836367 7.04661e-06 2.14305e-05 4.93305e-06 
89 2 1.13967 4.22318 29.262 -0.0622681 -0.864745 0.373171 9.85909e-06 -6.90455e-06 -3.66701e-06 
90 2 13.0475 37.1794 46.3028 -0.0701385 -0.846699 0.34756 4.89484e-07 -3.16328e-07 1.3317e-05 
91 2 10.4459 19.5292 33.4762 2.29436 2.26627 0.785794 3.10245e-06 -1.54216e-06 -1.35557e-07 
92 2 40.3082 34.3663 18.5303 -0.912406 -0.245179 -1.32355 8.30552e-07 3.23501e-05 -3.2935e-05 
93 1 17.6979 44.6493 30.0033 1.46754 -0.0222991 0.879225 1.79419e-06 -5.28858e-07 2.18955e-06 
94 1 12.5475 31.3857 36.2404 2.13394 1.93317 -0.271316 5.75028e-06 1.92263e-06 1.33274e-07 
95 1 48.2198 45.6281 23.3978 0.882906 1.4897 -0.370672 3.31501e-06 -6.52803e-07 -2.29292e-06 
96 1 10.7806 47.7989 49.3287 2.04901 -2.80447 -2.44351 -8.20362e-06 -8.01621e-06 1.16468e-05 
97 2 15.344 29.8959 44.3245 0.541124 0.566227 -0.140501 -2.9157e-07 -1.50997e-05 6.33338e-06 
98 1 39.5741 19.0682 27.2157 4.03111 -0.889247 1.26612 -5.6868e-05 3.33135e-05 -7.56824e-05 
99 2 10.2835 51.4044 41.8942 1.19862 0.829266 1.22158 1.35877e-05 -6.61496e-06 4.90979e-06 
100 1 45.7134 24.3888 32.6219 -1.17366 -1.56833 1.01274 5.20762e-06 7.31667e-05 -6.20536e-06 
101 1 -1.05708 52.3362 36.3968 -0.265526 2.098 -0.356396 1.28339e-05 1.02349e-06 -2.43419e-07 
102 2 13.997 16.0648 49.2958 -1.19 -0.842066 -1.58996 -8.70491e-06 -4.25718e-06 -3.8205e-06 
103 1 20.7199 18.4376 32.4054 -1.40417 3.23292 -3.31865 2.65749e-06 -8.3885e-06 9.29057e-06 
104 2 22.8457 7.4395 11.8537 -1.94066 0.499586 -0.363182 -6.4473e-06 -1.06849e-05 -4.91879e-06 
105 2 49.3507 47.8209 44.6365 0.316145 1.81504 0.726147 -7.59414e-07 -1.81282e-05 3.42122e-05 
106 1 51.243 12.5622 44.5066 0.358754 -3.02398 -5.36475 -4.55085e-06 -1.9105e-06 -8.005e-06 
107 1 39.3795 39.7906 26.0411 -2.57639 -0.785855 -1.51636 1.78118e-05 2.95169e-05 8.14608e-06 
108 1 41.8194 -1.26653 -1.11449 1.99713 0.607627 0.909864 1.07026e-06 -1.09131e-05 1.10701e-05 
109 1 11.5505 19.207 30.4728 0.796432 2.45662 2.6196 1.44758e-05 9.97479e-06 -3.08406e-06 
110 1 51.4516 33.5606 33.7524 1.94663 3.46361 -0.550913 8.27023e-07 1.619e-05 7.58163e-06 
111 1 25.6322 51.9382 20.9374 -1.20646 1.86049 1.99863 -5.13525e-06 -4.5911e-06 -3.66096e-06 
112 1 14.0897 32.5328 45.6949 -2.20738 2.05845 2.3851 5.51376e-06 -4.2692e-06 1.08844e-05 
113 1 40.0673 12.3765 4.26849 -0.385513 0.702898 -0.124201 6.80362e-06 -1.33424e-06 -8.71943e-06 
114 1 4.22755 22.2794 43.9813 -4.50387 0.233912 3.38819 -2.18761e-07 -1.22608e-05 -6.54185e-06 
115 1 29.2126 9.65482 -0.264318 -0.884868 0.901258 -0.913895 -7.4599e-07 5.00569e-06 -1.8672e-05 
116 1 4.62518 10.24 17.3783 -0.0400177 3.45434 -2.83022 -3.1404e-06 3.51522e-06 -1.08105e-05 
117 1 42.6604 12.6655 27.6208 -0.704523 -0.254045 -1.43944 9.86607e-06 6.0862e-05 -2.61731e-05 
118 2 29.7786 33.4812 3.54357 -1.02744 1.6374 1.00162 3.56154e-06 -4.25396e-05 -1.94089e-06 
119 1 6.33925 34.7342 34.4429 2.97934 -0.743005 3.04521 2.67284e-05 -8.62617e-06 2.02844e-05 
120 1 32.2348 12.1562 8.01739 -1.75267 0.375405 1.99122 5.13823e-06 -1.74918e-05 -5.08026e-06 
121 1 19.9984 5.15273 24.2154 -1.08748 -1.92088 -0.7648 4.76392e-07 -1.27251e-05 6.68869e-07 
122 1 42.7681 12.8719 25.3303 4.06111 1.46794 1.51203 2.31274e-05 1.98197e-05 -1.95179e-05 
123 2 44.5092 22.3497 17.0027 -0.887634 -0.736942 -1.67565 -1.42338e-05 3.02237e-05 2.55e-05 
124 1 4.82398 4.22592 41.2687 0.673558 -3.34667 0.507155 2.39021e-06 -1.91516e-06 -6.85607e-07 
125 2 37.6683 8.70171 10.915 0.696745 0.277476 1.05163 4.89009e-06 2.01211e-05 2.25072e-05 
126 1 31.3655 22.3746 30.4316 1.24154 -3.26891 0.447241 3.27072e-06 1.40912e-05 -1.63976e-05 
127 1 48.423 30.6908 11.8404 1.51561 -1.00068 -0.934493 -1.74065e-05 -2.19463e-05 6.07302e-06 
128 1 6.45853 14.8785 1.30459 -0.767564 -4.82474 -1.86157 -1.12044e-05 -5.63512e-06 -5.81916e-06 
129 1 23.1737 29.8086 11.9662 -2.24446 0.913261 0.64197 -1.50074e-05 -5.51958e-06 -4.8042e-06 
130 2 31.3659 26.7767 25.0379 0.165194 0.367547 1.6895 -5.27376e-05 1.11143e-05 -2.22993e-05 
131 1 24.7369 33.1715 7.67839 1.78714 -1.97056 1.40028 -2.2214e-05 -5.69632e-06 3.69936e-06 
132 1 31.1084 22.1192 12.8173 -2.18132 2.93195 1.27615 -6.16329e-06 -4.20522e-05 -2.21373e-06 
133 1 46.2293 29.0745 37.0428 -6.64527 -0.225856 1.28934 3.0748e-05 2.36361e-05 2.70801e-05 
134 2 46.4162 17.9014 39.4494 2.60313 0.00700542 -0.495334 -6.63229e-06 8.85317e-06 -3.56981e-05 
135 1 49.9092 44.1867 3.1933 -2.23811 3.27186 -0.273041 -2.49868e-05 8.57732e-05 1.83239e-05 
136 1 37.1205 6.41037 2.80637 1.05878 0.674289 0.00666564 2.23818e-06 -4.43054e-06 -2.28371e-05 
137 2 26.9857 16.9045 -1.25991 0.837918 -0.960184 -1.22569 1.32009e-05 7.89546e-07 -1.9162e-05 
138 1 20.9886 51.9404 -0.316249 -2.0143 1.92186 -0.211036 -1.78937e-06 -6.53445e-06 4.68749e-06 
139 2 13.8368 45.837 32.1855 -1.39069 0.162861 0.420947 5.33668e-07 8.41458e-06 -2.60043e-06 
140 2 44.1614 8.90331 36.8285 -0.261334 -1.03928 -2.24454 9.23663e-06 2.00422e-05 -2.97404e-05 
141 1 11.0196 38.4469 9.04608 0.92414 0.409879 4.41232 -1.15193e-05 -6.15546e-06 2.65155e-06 
142 2 30.315 33.1076 44.3138 -1.02513 0.582385 -0.736585 -1.24511e-06 -5.47277e-06 1.2007e-06 
143 1 5.61738 16.572 20.4167 -0.566352 -0.353193 -5.00315 1.01993e-06 -2.59982e-06 -5.8586e-08 
144 2 31.0121 0.451826 33.8568 0.500828 -0.00388751 1.22256 -3.55433e-06 7.25825e-06 5.69441e-06 
145 1 28.6726 20.4962 16.1876 1.88269 -1.52592 4.25632 -7.73071e-06 -4.43627e-05 -2.10131e-06 
146 1 15.2246 49.1981 25.0974 -0.261836 -0.463251 0.835205 9.40942e-06 2.64399e-06 1.31102e-06 
147 2 12.9899 18.0106 15.32 -0.57066 -0.459833 -0.790084 -1.59331e-05 -1.42516e-05 -8.84412e-06 
148 1 0.283765 50.2523 45.251 -0.36869 2.15762 -0.667542 -9.90809e-06 -8.66821e-06 -9.30833e-06 
149 1 0.420331 -0.571259 40.0133 -3.11387 0.84174 0.544171 1.7908e-05 1.15681e-05 8.28518e-07 
150 1 28.2729 8.20368 3.97093 2.30844 2.42511 1.23568 1.29618e-05 5.70709e-06 -8.32338e-06 
151 1 43.7641 37.5084 40.7353 2.28883 3.81374 0.319428 2.58753e-05 -1.0812e-05 1.32632e-05 
152 1 26.5422 24.3719 5.51244 -0.614745 -0.302585 2.12028 1.46994e-06 -1.5987e-05 -1.23665e-05 
153 1 17.9648 11.1392 14.0114 -0.293202 1.3155 -1.48068 -9.15533e-07 -5.65786e-06 -5.84137e-06 
154 2 12.0539 43.1075 4.27778 0.279524 0.343106 0.837365 -9.50332e-06 -6.17974e-06 -3.01849e-07 
155 1 44.284 39.107 33.3323 -3.30389 3.04888 0.367013 3.65884e-07 5.71345e-06 7.08302e-06 
156 1 45.074 47.1145 2.22944 -0.752228 0.264624 -2.12908 2.68616e-05 8.53576e-05 -6.02586e-05 
157 1 19.9163 52.2803 16.3715 -2.32288 -1.80747 0.943313 6.89086e-06 -8.72745e-06 -6.28082e-06 
158 1 28.0431 3.59653 33.7752 -2.73475 1.89971 1.33775 8.00024e-07 6.41961e-06 1.48709e-06 
159 2 34.0068 34.7266 39.9597 0.657029 -0.594789 -1.25738 5.61333e-07 5.01049e-06 1.04707e-05 
160 1 30.6858 33.4546 26.5968 -0.879945 4.03464 -1.38436 -2.01764e-05 3.37652e-05 9.46082e-07 
161 2 38.677 46.2661 33.6959 -0.913679 1.62279 -1.45952 8.28941e-06 4.12141e-06 2.3321e-06 
162 1 25.8741 48.924 26.0083 1.63034 0.611045 -0.336688 2.71839e-06 -4.04645e-06 7.27279e-06 
163 1 7.30876 35.5417 24.1246 -3.21023 -0.2433 0.955547 3.09376e-05 2.00961e-06 -1.85999e-05 
164 1 25.3302 9.35033 24.4765 -2.92343 -5.41541 5.7872 -3.75819e-06 -4.04719e-06 8.33097e-06 
165 1 36.4892 -1.3744 44.2851 -0.839599 1.5677 1.40832 -3.08062e-06 -4.06197e-06 1.43444e-05 
166 1 21.5874 10.3219 6.19143 -0.30002 0.794312 1.41394 -4.67895e-06 -6.37478e-06 -4.83496e-06 
167 1 39.4013 47.3315 14.8253 0.318719 1.62102 -3.3518 -1.99384e-05 -9.59526e-06 3.69624e-06 
168 1 8.16084 53.4133 49.1351 -1.09844 1.22347 0.957338 6.84287e-06 -1.0135e-05 1.04152e-05 
169 2 3.01109 14.5171 31.1731 2.51157 0.822055 0.0342826 -1.27277e-05 4.83557e-06 3.51583e-06 
170 1 1.41418 17.5529 43.6656 -7.67191 0.703397 -2.08858 -8.24147e-06 5.48204e-06 -9.77348e-06 
171 1 38.0451 41.5159 11.6346 2.80534 -2.25365 1.22758 -2.00327e-05 -8.46684e-06 -2.61373e-06 
172 1 47.011 46.5194 43.6916 0.20793 -0.0424653 1.44656 -1.1255e-05 9.94785e-06 -9.54109e-06 
173 1 12.835 6.9768 36.0341 -1.20689 1.34506 3.035 7.26532e-06 -1.24492e-06 1.12265e-05 
174 1 27.5644 9.53 42.4793 -1.13693 -1.96189 -4.41174 1.5875e-07 1.26741e-05 -8.98425e-06 
175 1 29.1753 2.65157 39.0209 1.65609 2.8636 -1.19764 7.4248e-07 1.33608e-06 3.07508e-06 
176 2 10.8268 39.3969 22.2201 1.30925 0.107 -0.241925 5.81305e-06 -2.19297e-07 -5.13873e-06 
177 1 13.5019 19.8628 11.0933 -2.07183 -2.32308 -0.505192 -1.40464e-05 -1.62099e-06 -9.66246e-06 
178 2 17.056 29.7281 34.4662 -0.164616 0.29721 -2.72197 7.44281e-06 -5.57882e-06 3.98131e-06 
179 2 16.8818 6.78041 20.3525 -1.08189 3.26177 0.620021 5.49251e-06 -1.16383e-05 -7.61862e-06 
180 2 39.1994 26.6736 1.24677 1.33504 -0.742968 0.897843 -1.71204e-05 -1.51636e-05 4.47583e-05 
181 2 23.1185 18.1141 42.2815 -0.316699 -0.517129 -1.17506 -1.25479e-05 1.12117e-05 -1.23242e-06 
182 1 -1.34844 45.2791 41.3383 -0.64567 3.52202 -0.0626221 -7.49924e-06 1.15806e-05 1.17806e-05 
183 1 40.4761 5.0682 18.4341 -3.24395 2.29985 -0.671257 -1.51973e-05 1.06827e-05 3.43251e-06 
184 2 15.2213 18.8429 39.4364 0.552028 -0.48888 -1.23182 1.08538e-06 -8.86933e-06 2.90669e-06 
185 1 44.2247 26.7699 26.3552 -5.1947 -0.384442 -4.26125 7.47455e-05 4.47617e-05 1.75339e-05 
186 2 41.8547 42.9378 37.2583 -2.32228 0.974522 1.09965 3.02916e-06 2.03297e-05 3.0628e-05 
187 1 7.70031 20.3526 19.6307 2.80891 5.54885 0.752266 -6.17935e-06 -1.01613e-05 6.3969e-09 
188 1 29.5148 50.6708 8.91299 -0.330451 0.102523 1.76352 6.65769e-06 -2.02918e-07 4.38235e-06 
189 1 14.3124 34.479 13.7846 2.05088 3.46724 -1.86825 -1.0091e-05 -2.80052e-06 -5.35966e-06 
190 2 43.9483 24.321 48.8616 0.350622 -2.0451 -0.270069 1.91331e-06 -1.03313e-05 -4.57602e-06 
191 1 30.4297 14.5451 27.5127 -3.3273 0.88325 1.49814 -4.4184e-06 -1.13603e-06 -2.01583e-05 
192 1 47.8843 -0.751718 35.946 1.84835 -0.89015 -0.59536 -3.92381e-06 8.88823e-07 4.7334e-06 
193 1 -1.32809 36.9197 48.8841 1.30918 -2.31578 3.05327 5.58312e-06 -3.97551e-06 2.52257e-05 
194 1 49.3212 11.7723 40.0318 -0.526911 4.14719 -1.30045 1.49718e-05 1.8583e-05 -3.93268e-05 
195 1 46.3227 13.6263 16.8616 -2.2354 1.98318 -1.39814 -8.46603e-07 3.66496e-05 1.99668e-05 
196 1 -0.0803164 30.9656 19.3555 -1.66967 5.10784 -0.210246 -1.84443e-05 1.06119e-05 6.30109e-05 
197 2 41.3015 28.4957 34.5625 0.46149 1.32071 0.377864 -2.38439e-05 3.99944e-05 -1.9539e-05 
198 2 18.959 13.634 14.52 0.956237 0.281338 1.95478 -6.10374e-06 -1.59568e-05 -7.91943e-06 
199 1 29.6975 18.7691 29.8604 -4.09173 0.0961874 -2.48637 -7.65696e-06 4.69082e-06 -6.79394e-06 
200 1 -1.15804 28.8572 41.77 4.08498 0.120765 0.773622 2.40709e-06 6.65481e-06 -2.53228e-06 
201 1 30.2749 36.7522 37.4931 -1.52535 1.30318 -0.777116 5.23835e-06 -3.25792e-06 -5.38083e-06 
202 1 41.1941 -0.222274 28.9757 0.142328 -0.300496 4.13848 1.38123e-06 1.65001e-05 1.97119e-06 
203 2 1.02191 20.7185 33.4131 1.41085 -1.53703 0.463089 2.69796e-07 1.33524e-05 -3.47512e-05 
204 1 22.5263 52.8912 26.5392 4.07348 0.396066 -6.15184 4.54455e-06 -2.29899e-06 2.03197e-06 
205 2 16.5838 51.3631 5.54133 -0.36051 3.52586 1.75713 2.44717e-06 -6.29999e-06 -1.3561e-06 
206 2 35.5083 24.2688 13.367 0.0726823 -1.878 -2.51226 -3.65017e-06 1.49706e-05 2.00331e-05 
207 1 24.067 49.0393 36.2625 -1.58943 -0.822508 2.30055 5.72486e-07 -6.76388e-07 9.78175e-06 
208 1 40.5368 20.0715 34.3318 -1.16073 2.55539 0.464715 -7.49243e-06 6.78562e-05 -4.7145e-05 
209 2 25.1941 28.1772 15.8669 0.535785 0.964819 -0.727607 -8.53658e-06 -6.73032e-06 -8.28131e-06 
210 1 12.038 21.6225 19.1047 -0.33807 0.47299 3.04379 3.36961e-06 -1.9819e-05 -2.41997e-06 
211 1 -0.758681 47.9746 45.3614 -3.40557 -2.81077 -2.56512 -8.96748e-06 1.08765e-06 1.0138e-05 
212 1 14.3816 22.8039 29.3124 1.25824 1.40917 -2.63039 1.68615e-05 -1.65948e-06 1.06464e-05 
213 1 6.44776 2.93843 20.2654 -1.71171 -2.79594 -4.68022 3.60885e-06 -1.03322e-05 -5.99036e-06 
214 1 28.8378 4.31972 16.8857 -0.896534 0.967768 4.55441 -7.51015e-06 1.3716e-05 1.17728e-05 
215 2 46.5143 45.7694 48.0083 -0.51837 0.145927 0.772471 -2.39666e-05 -1.0987e-05 5.07515e-05 
216 2 14.5919 15.5588 19.1305 2.13624 1.81515 2.19496 -1.41924e-06 -4.99436e-06 -9.35328e-06 
217 1 -0.357411 34.5409 31.7696 0.741632 2.14137 0.349329 6.75247e-05 1.28775e-05 5.28026e-05 
218 1 7.87818 49.3683 0.288154 2.7887 1.76506 0.632093 -6.05356e-07 -1.14747e-05 -1.27247e-05 
219 1 43.0173 16.2288 42.8917 -2.03851 3.1165 -2.00213 1.89125e-06 -1.54588e-06 -3.18834e-05 
220 1 25.8078 32.4749 24.1881 -0.60404 0.186115 -0.547698 4.31718e-06 4.90237e-06 -2.10166e-05 
221 2 28.9607 20.4331 39.3079 -0.0461666 -0.389945 0.672895 3.56324e-06 1.41581e-05 -1.27292e-05 
222 2 7.90271 31.2672 26.45 -1.31885 0.113326 1.09361 2.33426e-05 -4.1825e-06 1.11025e-05 
223 2 4.68872 35.1236 20.802 1.19224 0.478396 -1.19137 1.06195e-06 -1.795e-06 -4.02013e-06 
224 1 18.9058 1.07919 41.0687 0.996951 2.40186 -0.484113 8.70179e-06 7.83452e-07 7.47288e-06 
225 2 22.8237 43.6757 41.7811 1.22033 -0.126608 -0.143751 9.93995e-06 -2.96424e-06 -8.48965e-08 
226 1 36.2517 7.07282 34.8735 -2.93475 1.99711 -3.16581 4.19089e-06 1.26454e-05 -2.10318e-05 
227 2 37.8435 25.7526 36.1597 0.100731 -0.633408 2.04015 4.6253e-07 2.55031e-05 -1.60936e-05 
228 1 9.89823 38.6444 31.2056 -2.1722 -1.54348 -0.764571 5.8727e-07 4.78376e-06 4.88132e-06 
229 1 4.79094 39.0553 46.521 0.47392 -0.580915 -1.90661 -2.92235e-06 -3.65862e-06 1.05289e-05 
230 1 6.02386 30.2989 41.2662 -4.38435 2.33017 1.67781 1.11926e-05 -6.06386e-06 2.9522e-06 
231 1 13.492 8.6601 32.3456 -1.46324 1.66189 -3.11759 4.70993e-07 2.61919e-06 2.84436e-06 
232 2 9.07713 28.4294 35.6443 0.93219 -0.43086 -1.08322 9.21788e-06 -6.60495e-06 -6.16083e-06 
233 1 33.2546 18.1202 44.9054 1.04228 -1.82651 1.25931 4.35297e-06 1.02153e-05 -2.04492e-05 
234 1 23.4002 28.0697 3.31645 3.44084 -2.46177 2.67721 -2.12125e-06 -1.04079e-05 -1.38531e-05 
235 1 39.9473 51.8449 8.94902 1.2453 0.0950112 2.47548 -2.77098e-06 4.87182e-08 1.50511e-05 
236 1 42.3754 17.6954 37.5979 0.935326 1.29307 0.132423 -5.52245e-06 2.31221e-05 -5.31189e-05 
237 1 19.5565 49.1979 26.7177 -1.77535 2.58913 2.16218 -4.92495e-06 -8.29307e-08 1.2934e-06 
238 2 8.64671 18.8998 46.0266 2.38179 -2.85648 -0.302356 -1.01532e-05 1.11946e-08 -5.98683e-07 
239 2 33.6437 14.5636 27.3731 1.24564 1.70911 0.17793 -2.83283e-05 7.20473e-06 5.71911e-06 
240 2 33.9532 15.8186 4.79595 -1.97419 0.269115 -0.0419951 1.38862e-05 -2.00724e-05 6.09644e-06 
241 1 22.8564 31.6851 15.6865 -1.18265 0.594028 -1.15256 -2.42968e-05 -5.52422e-06 -2.16235e-05 
242 2 17.2156 34.7234 36.3617 1.46535 -1.13695 1.7153 4.34366e-06 -6.53469e-06 3.71507e-06 
243 1 49.9992 29.8498 40.3543 1.76831 3.85633 -1.31118 9.55464e-06 -1.35553e-05 4.00532e-08 
244 1 42.08 3.33454 27.3924 0.835412 0.826916 3.4348 -3.33369e-06 3.90771e-06 -7.81459e-06 
245 1 6.36361 11.9792 13.1343 0.873023 0.6783 0.0214648 -1.64104e-05 -2.83819e-06 -6.72803e-06 
246 1 51.4536 24.6377 42.5142 1.75246 1.3807 0.726187 -2.79698e-07 -6.85355e-06 -1.94991e-05 
247 2 38.2135 5.91686 10.2272 1.26099 0.959842 0.578883 -2.14075e-06 -3.97822e-08 -2.75451e-06 
248 2 32.0865 11.2162 37.7852 2.16115 -1.7795 -1.37915 1.80831e-06 4.40011e-06 -1.74046e-05 
249 2 28.3612 50.0951 37.0932 0.394319 1.21204 0.558335 -6.69094e-06 -2.63472e-06 9.88176e-06 
250 1 38.48 47.3503 19.9708 -1.77769 3.38744 1.05919 2.15587e-06 -3.78326e-07 5.28424e-05 
251 1 32.4653 5.84614 36.6827 0.260595 -2.85904 0.517516 1.11829e-05 1.72382e-05 -2.0033e-05 
252 1 5.12521 42.6154 20.471 -2.26239 2.04885 2.18852 -2.48622e-07 -1.19343e-06 -2.25825e-07 
253 1 41.9631 23.5751 7.76154 -5.69729 -1.19498 -0.438218 -3.74282e-06 -1.15013e-05 2.62128e-05 
254 1 0.855919 29.3733 37.7904 -2.93973 0.922192 -1.60326 -9.53054e-07 4.6211e-06 -5.98967e-06 
255 1 0.653353 33.2556 39.6338 2.40956 1.00131 2.01861 5.07038e-06 -8.94651e-06 9.85295e-06 
256 1 41.1072 18.2211 16.6947 -1.56416 -0.963646 3.67921 4.31132e-05 -1.16903e-05 -3.30929e-06 
257 1 16.9926 15.6724 37.4839 -2.50009 -0.53433 2.33957 8.39705e-07 -8.99801e-07 3.53006e-07 
258 1 21.0224 1.22582 31.8165 -1.7328 2.0159 -0.414748 2.28979e-06 3.13175e-06 6.43242e-06 
259 1 50.8811 37.7313 11.7829 -3.03187 -1.42736 -0.747876 -3.52796e-06 6.67428e-06 1.64044e-05 
260 1 25.6523 30.2203 40.0322 1.33634 1.72274 -3.2025 -6.77722e-06 3.37715e-06 -1.07362e-05 
261 1 5.83472 42.6675 11.8712 3.52287 0.826527 -4.33516 -8.42429e-06 -6.32419e-06 1.86999e-05 
262 1 20.8665 11.0101 40.7137 0.916492 2.55274 -2.4173 -4.47173e-06 7.67384e-06 4.67509e-06 
263 1 36.6085 11.1439 27.2921 -1.18851 -1.86457 3.29115 -3.27244e-06 9.30966e-06 -3.33757e-05 
264 1 42.1068 29.8581 11.118 -0.209606 0.241436 -0.847271 -5.34295e-06 -1.29113e-05 -6.43922e-06 
265 1 -0.845545 14.2977 -0.824255 0.541957 -0.320458 0.228641 1.08278e-06 -1.47564e-06 -1.11848e-05 
266 1 8.56052 28.1549 32.9864 -2.02914 -0.0865756 -0.516793 1.68065e-05 -1.09566e-05 4.63941e-06 
267 2 49.7716 43.4954 -1.2966 -0.432471 -0.793849 -1.10923 2.5788e-05 -3.91515e-05 -2.15659e-05 
268 1 31.0592 15.2512 4.89432 -0.506197 -2.36115 1.13616 6.49303e-06 -1.28638e-05 -8.815e-06 
269 1 49.2056 1.2248 35.6944 -0.482072 -4.504 -1.058 1.41398e-06 6.87617e-06 6.28623e-06 
270 1 7.15048 51.7623 31.2559 0.693296 -3.7134 0.874937 7.87624e-06 -2.37123e-06 2.2221e-06 
271 2 17.4072 18.2068 37.9565 1.25475 0.0705079 0.918555 3.42058e-06 9.88038e-07 6.14903e-06 
272 1 49.3119 21.5223 12.3851 -1.53462 0.183827 -1.94598 6.06488e-06 -1.39593e-05 2.08259e-05 
273 1 12.6619 31.4883 21.8988 0.799132 0.528912 3.04883 1.60301e-05 8.27411e-06 7.20505e-07 
274 2 50.3149 30.8207 23.4715 0.82759 -0.206984 1.09893 3.0933e-05 2.67803e-05 3.12851e-05 
275 2 44.1986 -0.243478 49.9765 -0.527574 1.12645 1.99133 -1.88844e-05 -2.02515e-05 9.738e-07 
276 1 45.7484 36.6827 49.712 -2.15568 0.802636 -0.664364 1.53366e-06 7.95271e-06 3.9191e-05 
277 2 5.88403 -0.666199 31.1813 0.00473047 -0.619335 -0.119197 8.73587e-06 2.33705e-06 -5.53977e-07 
278 1 23.7062 50.0802 0.380401 -0.667026 0.905353 -0.874629 2.67267e-06 -7.20273e-06 9.78773e-06 
279 1 11.9448 24.118 36.3267 -1.65566 3.08566 0.408277 1.25489e-05 7.57886e-07 -8.16976e-06 
280 1 11.2203 20.0351 42.6682 1.9392 1.30154 -0.498375 -1.99331e-07 -7.57923e-07 -1.2338e-05 
281 2 37.365 28.1391 20.61 0.334524 1.67362 0.339528 4.78587e-05 9.24509e-05 3.96684e-06 
282 2 32.3442 37.0586 46.901 1.19042 -0.936826 -0.391525 -1.57956e-06 8.54062e-06 4.13596e-07 
283 1 29.824 24.4057 47.457 0.266754 1.23189 1.66118 9.53483e-06 5.89151e-06 -1.84694e-05 
284 1 9.13605 19.7046 10.4554 -1.05376 -0.466488 -2.83857 -7.91289e-06 2.03337e-06 -9.12985e-06 
285 1 1.78286 25.4235 0.448459 0.637559 -3.15522 0.634748 -1.20251e-05 -7.62243e-06 -4.3299e-07 
286 1 7.41708 10.5977 35.0868 1.2247 2.1388 -3.39757 3.13667e-06 3.37411e-06 1.98476e-07 
287 1 30.0494 50.5012 11.2097 -1.51522 2.75435 0.0934884 -1.11062e-05 -1.17156e-05 5.01282e-06 
288 1 42.5283 41.9008 23.3021 -1.37692 1.98404 1.21667 1.49382e-05 1.3738e-05 3.2928e-05 
289 1 9.08699 19.7079 7.9293 1.40223 -0.0712077 -1.91953 -6.10134e-06 -1.04108e-05 -9.3549e-06 
290 2 27.7534 6.15855 34.5755 -0.923142 -1.01399 -0.291078 4.33566e-06 6.44027e-06 5.59812e-06 
291 2 45.4883 44.6481 1.51633 0.075197 1.31981 0.246348 -1.84198e-05 2.45954e-05 -1.55077e-05 
292 2 22.248 6.28518 31.2897 1.32538 -0.936868 0.118129 -1.7322e-06 -8.57206e-06 1.52649e-06 
293 1 42.6544 49.3302 39.4962 0.664534 -2.9596 -1.74582 -4.64386e-06 -1.19461e-06 -3.09537e-06 
294 2 10.9132 53.1318 23.0463 -0.668432 1.28226 -0.123136 3.16327e-06 -5.12749e-06 -3.49354e-07 
295 1 11.2292 14.5485 13.4153 -2.48157 -0.686206 -0.222273 -1.00689e-05 -6.03468e-06 -7.99675e-06 
296 1 2.57178 48.487 48.3072 -1.11584 1.60316 0.163015 -2.35324e-05 1.63992e-05 3.57446e-05 
297 1 28.7095 18.2219 49.1162 0.317029 2.06219 0.943697 -3.81359e-06 -3.39871e-06 -8.90019e-06 
298 1 45.4694 33.6562 14.3116 2.79815 3.64312 2.15496 -5.78458e-06 1.63541e-05 -1.02328e-05 
299 1 -0.0214655 10.1721 44.8981 -2.02549 -0.162666 3.91189 -1.17767e-05 -2.60257e-06 -6.13244e-07 
300 1 10.8619 25.0577 22.0974 -0.333269 1.73733 -0.229898 9.05146e-06 -6.76466e-06 -1.8584e-05 
301 1 2.55385 22.9679 11.7004 2.68594 -2.03323 0.479469 -3.3032e-06 -8.04476e-06 -1.18728e-05 
302 1 12.377 25.1485 2.41686 1.6448 1.26788 -1.71841 -1.62165e-05 6.82387e-06 6.73959e-06 
303 1 0.290501 26.6149 31.4876 3.24553 -0.674923 -1.38529 5.00266e-05 1.72784e-05 4.65713e-06 
304 1 32.5659 35.7411 41.9367 2.94171 3.26845 3.62262 9.45818e-06 3.55866e-06 2.84568e-06 
305 1 21.1266 14.6565 15.7153 1.23183 1.28632 -2.93444 1.76769e-05 -2.69082e-05 -1.51782e-05 
306 1 17.1579 -1.22852 24.5425 -0.0454879 -2.34139 2.77684 -2.97125e-06 -1.05319e-05 1.81811e-06 
307 1 23.4195 31.0931 34.2614 3.61802 0.924609 -1.4144 8.05011e-06 -1.00665e-06 -3.23628e-06 
308 1 26.2181 44.3006 8.93103 1.1476 1.819 -5.07358 7.26138e-06 -9.62386e-07 -2.25322e-06 
309 1 37.3141 43.131 42.835 2.92955 -1.01274 0.581407 -4.851e-06 -1.90075e-06 1.94971e-05 
310 1 48.92 43.0497 28.9539 2.12059 2.12854 1.07981 1.70753e-05 2.78786e-05 1.94411e-05 
311 1 21.3327 -0.795467 0.693515 1.72844 0.710043 1.40623 2.97755e-06 -7.02572e-06 7.36171e-06 
312 2 18.7585 52.1352 34.9606 1.19377 1.69401 1.75989 -2.0926e-06 -1.10674e-06 6.535e-06 
313 1 47.9501 24.0325 12.8993 -2.32226 -2.0166 -4.6944 2.19174e-05 -9.91196e-06 -1.72922e-06 
314 2 47.5909 40.5118 47.8253 -0.67264 1.10656 1.50089 -1.07571e-06 6.03041e-06 1.87529e-05 
315 1 16.2436 13.7139 14.1855 -4.44352 0.500153 2.43133 -8.94031e-08 2.02674e-06 4.0468e-06 
316 2 19.8785 27.2297 39.9991 0.374357 -0.878853 -1.147 2.68663e-06 6.32367e-06 2.64569e-06 