ITEM: TIMESTEP
31021247
ITEM: NUMBER OF ATOMS
11520
ITEM: BOX BOUNDS pp pp pp
-0.808335 50.9483
-0.840047 52.9471
-0.792004 49.919
ITEM: ATOMS id type x y z vx vy vz fx fy fz 
1 1 14.2313 15.4062 30.7656 1.87837 0.859739 1.01178 2.3988e-05 -9.11384e-06 -2.87905e-05 
2 1 1.29246 16.9387 17.2388 -1.999 -1.72287 1.28382 2.11864e-05 -1.06021e-05 -9.58766e-09 
3 1 0.511439 17.1857 41.9163 -4.20576 -1.77805 0.631763 1.53362e-05 2.25183e-05 -8.21333e-06 
4 2 48.6443 37.3689 17.1339 1.29593 0.85179 -1.01546 -2.3843e-05 -2.66051e-05 -4.69179e-06 
5 1 37.9616 6.58766 10.6578 -2.32829 -2.3977 0.561473 2.72458e-05 1.55412e-05 7.45291e-07 
6 1 10.986 11.628 0.588297 1.70262 1.83253 -0.501654 5.90709e-06 2.32594e-05 1.55233e-06 
7 1 37.5823 42.2781 45.8737 -2.91485 -2.92096 -0.674741 -1.37121e-05 -7.78065e-06 1.35874e-05 
8 1 17.4576 37.7607 45.0616 0.943214 2.73756 2.91257 -4.57176e-06 9.60925e-06 1.59149e-06 
9 2 10.1445 17.2851 18.7523 -1.25637 0.348779 0.441852 2.13315e-05 -2.34067e-05 -9.975e-06 
10 1 34.3524 34.9192 42.7825 -2.72721 -2.87104 -2.74443 -9.80734e-07 -8.13681e-07 9.81782e-06 
11 1 40.2487 7.33866 9.59436 3.21306 2.406 2.06325 4.35912e-05 -1.72421e-05 -5.59225e-06 
12 2 41.4951 51.0056 0.387379 0.782926 0.301505 -0.295531 -1.68329e-05 -9.36481e-06 1.23049e-05 
13 1 38.7413 13.5483 26.7506 2.62891 3.05136 1.32198 3.65404e-05 -7.13033e-06 1.20554e-05 
14 1 21.0078 3.64363 14.7259 3.08869 -2.28737 -1.44979 2.45339e-05 -5.8553e-05 -6.35442e-05 
15 1 3.97055 30.535 15.0751 -1.1402 -0.277136 -0.517226 -1.85993e-05 2.15525e-05 1.24644e-05 
16 1 19.9477 7.41321 46.9946 -2.92693 -2.22026 1.43928 1.52158e-05 3.84987e-05 5.77114e-06 
17 1 16.8609 41.9364 18.7367 2.45241 -1.13534 -0.833559 -1.18104e-05 8.74832e-06 -6.65107e-06 
18 1 32.777 38.5167 5.64808 0.449413 -0.362132 1.13425 -2.56801e-05 -1.61337e-05 -3.30185e-07 
19 1 11.2524 46.7446 8.44094 -2.89358 0.350996 0.606259 -1.21582e-05 1.85532e-05 3.93348e-06 
20 1 9.99977 20.2959 30.8428 -0.204018 -0.243528 0.0429911 2.09544e-05 5.06843e-06 -2.94358e-05 
21 1 47.2915 18.9651 12.1289 3.21207 1.95637 4.35743 -8.46156e-07 2.9767e-06 1.40388e-05 
22 1 31.8737 42.2974 42.6926 1.09913 0.568416 -4.07097 -1.24842e-05 2.14753e-06 3.70661e-06 
23 1 2.64878 11.883 31.331 2.15325 -1.64049 -0.0933302 1.83825e-05 3.35871e-06 -1.67238e-05 
24 1 41.8847 40.2001 34.7328 0.0637667 -0.0685628 0.979114 -1.4337e-05 -9.44442e-06 -1.44729e-06 
25 1 38.8774 17.1627 41.1613 1.50754 3.39306 3.3974 1.02797e-05 1.17241e-05 5.20619e-06 
26 1 1.5752 1.04531 -0.610388 -0.245194 -3.42271 2.13108 -1.40892e-05 5.30252e-06 -6.09974e-06 
27 1 19.8761 27.7571 19.3296 0.790519 0.672748 0.239434 -2.94932e-05 -9.84127e-06 -4.14096e-05 
28 1 22.1417 0.142486 26.704 -0.483778 2.63988 -0.439684 3.19018e-05 -5.19577e-05 2.68387e-05 
29 1 32.1056 14.5747 39.4014 0.715165 1.68225 -1.1747 1.63206e-05 1.18539e-05 2.21806e-05 
30 1 1.52062 31.1975 16.3349 0.311996 -4.96039 2.02575 -8.02655e-06 1.16065e-05 1.31567e-05 
31 1 11.6012 30.9591 24.1073 -0.117307 -2.4863 -1.51649 -1.86663e-06 2.57793e-06 -1.51005e-05 
32 2 42.0405 10.3284 19.5946 -0.348598 -1.26212 0.622477 2.6421e-05 -1.30262e-05 1.31074e-05 
33 1 12.2357 45.1378 3.65102 3.16014 3.83882 -0.657348 -2.86676e-06 3.32057e-05 -6.72418e-06 
34 1 36.7477 37.7055 15.2422 -0.658387 -4.0217 -3.00761 -3.07215e-05 -2.93509e-05 6.31333e-06 
35 1 22.5822 49.6898 12.6765 -0.147686 2.66146 0.768228 -3.54981e-06 1.84879e-05 -6.32889e-06 
36 1 4.042 17.5547 25.2564 -0.837382 3.3983 0.0261735 3.13891e-05 -7.57474e-07 -1.33862e-05 
37 1 35.6469 18.0112 19.0407 3.31796 -0.471652 -1.09832 2.1302e-05 -1.68875e-05 9.9624e-06 
38 1 39.1612 9.91611 30.1161 0.619461 0.213421 -2.20221 5.06917e-05 -3.58429e-06 1.25501e-05 
39 1 46.7953 21.2361 11.1139 0.725202 3.23807 -1.20013 1.13847e-05 -1.23128e-08 1.27347e-05 
40 1 18.8176 0.744235 18.2842 1.68044 1.0687 3.16833 4.58187e-05 -2.13584e-05 1.33246e-05 
41 1 47.6204 25.3166 39.5931 -0.739237 -2.54223 0.0258574 9.27622e-07 1.66735e-05 -8.54646e-06 
42 1 28.9476 4.24521 42.9754 2.48725 1.59602 -0.11366 1.31222e-05 1.95778e-05 1.50268e-05 
43 2 17.4991 35.1174 38.9048 0.706379 2.4848 0.701138 3.30732e-06 -4.95754e-06 -1.4085e-05 
44 1 42.7917 4.11287 4.7692 -1.48719 -2.16051 0.913297 -1.14783e-06 1.01183e-05 4.06508e-06 
45 1 31.0309 22.4439 47.2222 -2.00706 1.27995 -4.29369 -6.21026e-06 5.17355e-06 8.6637e-06 
46 1 6.96089 17.9488 22.6485 1.17927 -1.45127 1.10745 2.85033e-05 -7.80759e-06 -2.32623e-05 
47 1 19.4624 52.5156 1.56473 3.80095 1.86439 0.951361 2.21756e-05 1.28295e-05 1.13196e-06 
48 1 30.3822 13.2147 37.731 0.331703 1.52866 -0.717639 8.32989e-06 5.094e-06 -5.45293e-06 
49 1 18.9574 38.9569 37.8002 -2.07 -0.144481 -0.374908 -1.04036e-05 1.12794e-05 9.69661e-07 
50 1 9.57597 49.2518 17.197 -3.29912 2.51965 -1.68921 -1.59437e-05 5.1587e-06 -3.01439e-06 
51 1 18.1515 19.5921 11.7173 1.71881 3.49312 0.618047 -2.07236e-05 -3.18755e-05 -8.83002e-06 
52 1 22.0309 30.7552 8.59063 0.812088 -2.13725 -0.314167 -2.02948e-05 2.46461e-06 -5.35765e-06 
53 1 38.3397 16.1272 32.7581 3.52093 -1.10608 0.322617 3.26811e-05 -1.76416e-05 1.35831e-05 
54 1 10.5011 23.916 18.4332 0.71861 -2.27059 -0.773979 -5.75671e-06 -1.79211e-05 -1.39426e-05 
55 1 40.3423 8.25725 15.9713 -0.0109114 2.57759 -2.40007 3.90875e-05 -9.12483e-06 -8.76836e-06 
56 1 23.6299 48.2281 40.6137 3.29196 -0.0859753 1.61036 -5.49689e-06 1.84919e-05 1.44668e-05 
57 1 11.0853 12.5971 34.1285 -2.65218 2.24476 -1.41826 1.60704e-05 5.41279e-07 8.17218e-06 
58 1 37.2031 35.3998 44.5103 -0.741085 -0.247887 -0.832006 -1.57299e-05 -5.4953e-06 1.46584e-05 
59 1 34.0385 40.7451 16.7713 3.11042 -1.69565 -1.25049 -3.11094e-05 -3.85808e-05 1.68346e-05 
60 1 34.4795 41.6323 34.1905 -0.0742784 0.191187 0.0450159 -9.33235e-06 -2.27959e-05 2.45326e-06 
61 2 16.6461 9.84072 12.9259 0.193544 0.634071 -0.0344533 5.68607e-06 -4.00742e-05 -1.91494e-06 
62 1 48.6348 40.2046 40.435 1.11382 2.59047 -0.937388 -2.54256e-05 -1.2025e-05 -8.03704e-06 
63 1 27.5158 11.9059 3.28267 1.22825 0.394452 0.732889 -6.70852e-05 2.53737e-07 -3.58332e-05 
64 2 0.0896613 43.6034 0.216608 -0.625294 0.36815 -1.07297 -3.04976e-05 1.28389e-05 -5.29635e-06 
65 1 26.78 25.5606 24.2555 1.53838 -3.36035 0.484991 1.94908e-05 -3.41934e-05 -5.97484e-06 
66 1 30.6845 7.71897 13.8788 -0.531581 -0.0110128 -1.12558 1.161e-05 -1.64133e-05 1.334e-07 
67 1 10.5023 10.9269 44.615 -4.07506 2.63524 1.18008 -1.02916e-05 2.36453e-05 -6.96396e-06 
68 1 4.71163 25.6846 12.8762 -0.0701629 0.540432 -3.48011 -7.98302e-06 2.201e-05 -1.48421e-05 
69 1 38.8687 22.1004 20.5474 1.29785 4.50937 -1.44401 -1.19216e-06 -2.80732e-05 7.14341e-06 
70 2 14.5296 11.0766 23.2264 -2.00147 -1.26298 0.126052 4.5431e-05 -1.91694e-05 2.25488e-07 
71 1 32.6265 17.7133 30.6632 0.88544 -0.252301 1.62897 2.60145e-05 -1.1668e-05 1.67501e-05 
72 1 11.8555 19.0618 14.698 1.1806 0.976752 -2.38137 9.23671e-06 -2.08668e-05 -1.16443e-07 
73 1 35.5305 39.8272 35.3362 -0.0113168 2.96702 1.61456 -1.23494e-05 -1.23327e-05 -2.54722e-06 
74 1 39.7824 43.6831 28.0401 1.21599 0.507515 -4.5485 -1.30807e-05 -1.80472e-05 2.50356e-05 
75 1 48.709 16.145 4.86931 -2.82324 3.21331 -0.764055 -3.86675e-06 4.3258e-06 3.7054e-07 
76 1 1.29508 25.669 31.8756 -4.50025 -0.637744 -0.233058 4.43079e-05 1.17136e-05 -3.75061e-05 
77 2 21.8383 23.607 16.1962 0.810095 -2.83154 2.1881 -3.98847e-05 -2.87842e-05 -1.25439e-05 
78 1 44.0616 0.791519 49.4538 -0.723079 -0.189867 -1.4385 -5.47226e-06 -3.07435e-06 1.74939e-05 
79 1 38.5851 2.90612 43.4853 -2.05205 -0.427885 0.262794 -4.03277e-06 5.55963e-06 -7.05723e-06 
80 1 1.6696 15.7629 28.2066 -2.93184 0.844786 -1.33329 4.74424e-05 -1.32484e-05 -2.36649e-05 
81 1 4.2922 25.3532 41.7346 -1.08262 1.61272 0.64406 7.79624e-06 1.19761e-05 -2.9549e-05 
82 1 24.4763 27.3203 9.90067 -1.97749 2.21374 -1.65896 -5.6092e-05 -1.28617e-06 -3.14002e-05 
83 1 40.8919 20.0723 20.7503 0.595432 4.30809 -0.970688 3.02192e-05 -2.01702e-05 1.70121e-05 
84 1 25.4692 11.1771 42.1239 -2.49253 0.340631 -4.69554 1.60621e-05 2.62434e-05 4.99103e-06 
85 1 24.2358 10.211 23.1656 2.07186 1.24099 1.65417 -2.10846e-05 1.16945e-05 -1.28506e-05 
86 1 2.38776 37.4182 15.8442 1.34226 -1.41477 -2.64102 -1.3642e-05 1.72289e-05 -5.24484e-06 
87 1 26.6747 36.3971 0.0724782 0.650895 0.16183 2.08698 -3.30044e-05 8.89346e-06 7.4407e-06 
88 1 5.68174 3.17702 16.4591 1.39355 -0.640546 1.34831 1.07163e-05 6.66057e-06 4.15861e-07 
89 2 47.0169 13.4558 33.9566 -1.93011 -0.0315251 0.886803 3.67518e-05 4.96783e-07 -2.52781e-06 
90 1 11.2875 0.229959 35.1889 0.253217 1.37436 -0.521498 1.38461e-05 4.48236e-06 6.82701e-06 
91 2 28.2889 6.59562 43.7126 -0.714212 -1.01324 -0.250618 1.28097e-05 1.24883e-05 8.24921e-07 
92 1 46.2702 52.0803 5.43857 1.55303 -2.23432 4.55344 -1.81119e-05 -1.18545e-06 5.94267e-06 
93 1 18.1449 2.6406 12.1973 -0.153986 2.52492 -0.395455 -2.93472e-05 1.27514e-05 -3.1508e-05 
94 1 0.112773 24.5351 13.196 0.13681 -0.319885 1.87851 -1.00521e-05 1.35796e-05 3.31406e-06 
95 1 32.5125 47.6885 23.9807 3.9596 -0.700707 0.0450997 -1.20128e-05 9.92581e-06 3.34654e-06 
96 1 48.2666 -0.403867 26.8756 2.12754 0.538052 2.09286 5.61627e-06 -6.72019e-06 6.08293e-06 
97 1 42.975 24.5679 20.431 -1.01114 -0.000509335 -1.13398 1.03231e-05 1.62688e-06 1.21297e-05 
98 1 29.0348 18.0627 16.5991 -1.02431 3.31956 -0.404321 1.61848e-05 -2.34101e-05 1.28758e-05 
99 1 41.1364 30.7843 49.4811 2.55301 -0.119545 -0.0948158 -3.40069e-05 2.80081e-05 1.77777e-05 
100 1 3.88194 1.55064 39.5907 2.51952 0.214312 0.91172 -2.72278e-06 1.67241e-07 4.44979e-06 
101 1 2.97706 35.6536 34.0368 2.28122 -0.324685 -1.6992 -5.41124e-06 1.18853e-05 -1.87404e-05 
102 1 42.7295 5.11294 31.2579 1.768 0.607404 0.780031 1.37031e-05 -1.84816e-05 1.06276e-05 
103 1 27.5253 40.8359 25.2263 0.314527 2.22013 -1.29779 -1.63587e-05 -2.55182e-06 -6.46193e-06 
104 1 3.14364 40.775 31.3166 0.871774 3.675 -0.218565 8.18975e-06 -5.04522e-06 1.83979e-06 
105 1 2.10548 12.4276 42.9478 1.93452 -0.58202 3.73659 1.89253e-06 4.42527e-06 -1.5583e-05 
106 1 15.759 9.09037 46.0684 0.675278 -4.72884 0.169524 2.48643e-06 2.02198e-05 2.27871e-06 
107 1 33.27 16.4136 36.016 -1.83858 -0.809251 2.40107 9.59179e-06 4.44669e-06 2.23261e-06 
108 1 11.3094 35.9832 40.4179 -1.0258 1.65494 -1.42961 5.44555e-06 8.9575e-06 -1.05664e-05 
109 1 9.41746 31.8168 47.9178 -2.68956 0.206601 -0.877526 -2.52595e-05 1.90781e-05 -1.20702e-05 
110 1 12.8929 48.5509 9.98256 1.88181 -0.969575 2.76705 -2.21931e-05 1.56436e-05 -9.59892e-06 
111 1 46.3069 39.0629 13.7828 -4.42159 2.39298 -0.647898 -3.68477e-05 -1.28422e-05 -1.73805e-06 
112 1 1.78867 35.7873 27.3341 1.99984 1.91729 1.31806 8.2018e-07 -3.54785e-06 -1.23228e-05 
113 1 1.28658 24.7776 9.45118 0.531549 1.005 -0.464811 -1.43875e-05 1.31156e-05 3.12303e-06 
114 1 35.3353 5.85448 38.0421 -1.69727 -2.72117 2.06237 9.31305e-06 5.21981e-06 2.03571e-05 
115 1 19.5226 22.1356 27.2794 1.63835 -0.397154 0.183009 2.19314e-05 -3.24916e-05 -2.32808e-05 
116 1 45.503 32.2433 49.5777 -0.452239 0.142321 -1.20166 -2.09859e-05 4.15824e-06 3.4214e-06 
117 1 42.4241 4.95111 13.4092 -1.87799 -0.7077 0.49025 2.66192e-05 -1.83772e-05 1.8761e-05 
118 1 10.6517 33.7618 21.1529 -0.263808 0.916847 -0.322828 1.76081e-06 1.23947e-05 -2.12551e-05 
119 1 28.2024 46.7381 2.23742 3.06171 -1.11042 1.70857 -4.47087e-06 6.76372e-06 8.49734e-06 
120 1 43.4863 21.1606 37.467 -0.535781 1.23581 -2.76499 8.66246e-06 3.45824e-06 4.02943e-06 
121 1 50.8075 39.2359 2.3515 -1.14907 1.42536 0.468202 -1.49943e-05 1.07286e-05 -2.22258e-06 
122 1 4.85971 28.0822 11.946 -0.374211 -1.20737 -3.37866 -2.50063e-05 3.60198e-05 -1.26915e-05 
123 2 4.52514 36.3937 5.29051 -0.183726 -1.40035 -1.49279 3.27377e-07 1.25298e-05 1.64708e-05 
124 1 13.6733 16.8694 13.1556 0.768015 1.49512 2.18271 1.22308e-05 9.61424e-07 -1.29863e-05 
125 1 25.4846 18.9322 11.5619 0.732312 -4.91269 0.1205 4.45964e-07 3.32727e-05 -5.56356e-05 
126 1 41.519 10.6578 41.0431 2.50342 -1.26959 -2.366 -2.14075e-06 2.87929e-05 2.32644e-05 
127 1 38.6533 45.2107 0.528639 -2.36743 1.15498 -5.49186 -9.50553e-06 1.58577e-05 -4.13614e-06 
128 1 17.9296 43.4649 21.4549 -2.20086 0.455526 0.995035 8.41078e-06 3.90921e-06 1.81914e-06 
129 1 21.7897 32.8923 -0.547118 1.82897 -1.43856 0.245366 -1.25714e-05 1.01591e-05 -4.83491e-06 
130 2 33.518 25.78 3.35905 0.310475 -1.17923 0.222407 -9.00513e-06 3.75752e-06 3.16056e-08 
131 1 48.5911 6.9419 36.0835 2.52508 -1.60041 -4.07298 1.87883e-05 -2.17876e-05 7.03898e-05 
132 1 31.3545 24.6266 2.33019 0.219107 -0.121692 2.5215 1.75502e-05 4.57259e-05 -3.84338e-05 
133 1 16.4204 35.0545 36.5667 0.972851 -2.12319 -3.87204 5.53976e-06 5.45038e-07 -2.60519e-05 
134 1 28.0705 39.9619 23.0964 -3.42131 -1.45377 3.0045 -2.97337e-05 -1.56992e-05 5.10172e-06 
135 1 25.4539 33.5039 30.4565 -1.39419 -3.70722 4.43612 -5.14101e-06 -2.50411e-05 -3.92687e-06 
136 1 48.1795 35.5159 30.942 5.50863 -1.34793 -0.687632 -1.33855e-05 -1.68574e-05 -2.27008e-07 
137 1 46.0525 39.7477 7.99475 -0.106245 -2.59381 -1.48753 -2.5892e-05 4.28547e-06 1.66785e-05 
138 1 1.38332 4.29003 28.5878 -1.47834 0.0246929 0.537459 2.40536e-05 -1.78181e-05 -3.88416e-06 
139 1 1.66472 49.3856 30.9858 1.07687 -2.43404 -0.830247 3.52653e-06 2.02369e-06 1.08229e-05 
140 2 25.8907 10.6129 44.7632 -1.00386 -1.00209 -0.137499 1.57524e-05 9.15624e-06 6.91307e-06 
141 1 11.0327 23.4343 36.5552 2.10434 2.99783 -0.0174043 8.30999e-06 -1.83703e-05 -7.13343e-06 
142 1 23.2368 20.5259 24.7002 1.41731 2.26616 0.2745 4.12484e-05 -5.93761e-05 -1.24833e-05 
143 1 48.4099 36.7225 43.9753 -0.339449 -0.455727 0.97496 -1.42526e-05 -1.24844e-06 -8.39304e-06 
144 1 0.870601 20.7219 14.4273 0.779451 1.35112 -0.731218 2.64844e-05 2.3768e-05 -2.60104e-06 
145 1 29.1394 6.86443 48.6031 1.28222 -2.5252 -6.47091 -5.97658e-06 1.38349e-05 1.71465e-05 
146 1 15.7772 24.0319 23.1365 -0.828498 -2.2722 -1.1485 4.67956e-05 -3.67381e-06 -2.45682e-05 
147 2 27.4635 7.45068 26.2431 -1.01145 0.0149165 -2.51506 3.87878e-05 -7.99192e-06 -1.68898e-05 
148 1 39.4221 41.5607 42.2687 0.81744 0.037917 -1.55167 -6.63379e-06 8.94073e-07 4.9845e-06 
149 1 19.4191 32.7525 3.64273 2.66378 1.68241 -1.58223 -3.53988e-05 1.66699e-05 4.7726e-06 
150 1 21.9438 42.2835 34.8024 0.0634602 -0.298547 -6.23418 1.00839e-05 -1.96139e-06 1.55572e-06 
151 1 10.9 0.0727015 29.2085 -1.94882 -0.993025 1.48907 -2.005e-06 7.49997e-07 9.10169e-06 
152 1 20.7958 12.737 16.5899 -1.44166 -2.47426 -0.0581437 3.50998e-05 -5.39781e-05 2.56159e-05 
153 1 38.335 28.6561 40.1214 -1.53389 1.57847 2.25889 6.30847e-06 -4.89303e-06 -1.57327e-05 
154 2 19.8691 13.9629 23.0884 -0.273147 0.569458 1.23425 1.50159e-05 -3.73926e-05 -1.30128e-05 
155 1 32.9481 34.0994 4.93246 1.77213 -0.291983 1.18605 -5.5208e-05 2.70095e-06 4.29629e-06 
156 1 28.2682 22.4897 9.26632 1.11087 4.84272 1.08847 2.42283e-05 1.91284e-05 0.000310684 
157 1 46.9714 45.3687 29.843 -0.99932 -0.152117 -3.07798 -5.3381e-06 -1.25677e-05 -6.44564e-06 
158 1 26.4668 2.51459 26.5947 -2.82674 0.6704 -2.92249 5.3103e-05 5.18932e-06 1.69479e-05 
159 2 45.6183 48.2544 -0.691764 -0.976414 -0.405715 -0.327802 -1.26507e-05 -1.01142e-06 -7.91647e-06 
160 1 49.2398 18.1492 37.619 -0.393432 3.81078 0.743224 2.84743e-05 3.11964e-05 -5.16777e-07 
161 1 48.5417 0.0568862 18.4672 -0.676325 -2.85734 3.29541 4.68864e-06 -7.14035e-06 1.68013e-05 
162 1 22.2812 16.3484 10.4106 -1.34459 -2.06241 0.657543 5.56842e-05 -1.69371e-05 -7.28706e-05 
163 1 16.8413 23.869 48.8805 -3.21001 2.03857 -1.45355 -2.10961e-06 4.28102e-05 2.80117e-05 
164 1 38.9207 26.0631 48.3273 1.82361 -1.14476 0.63842 -1.22977e-05 9.86413e-06 -1.04115e-05 
165 1 45.2981 26.8367 43.9671 -2.40353 -0.869823 -0.780448 -8.85173e-06 -4.23628e-07 -1.54762e-05 
166 1 6.45468 13.6985 6.56825 0.19979 -1.11119 -1.71999 -1.67782e-05 -3.49997e-06 1.60623e-06 
167 1 21.5857 25.8124 47.6532 2.47145 -2.36156 0.502213 -4.17513e-05 1.4755e-05 4.13942e-06 
168 1 37.9344 21.534 14.1707 0.699588 -2.78844 2.33874 2.16349e-05 1.06146e-05 1.33249e-05 
169 2 3.47469 38.481 3.8441 0.712467 2.20995 0.961998 -7.46219e-06 2.29908e-05 1.00038e-05 
170 1 26.4738 39.1287 2.74285 0.533349 0.295373 -0.876745 -2.3671e-05 1.96167e-06 -4.56254e-07 
171 1 43.0319 39.4879 46.273 0.759956 1.53484 -1.25189 -2.88687e-05 -1.38186e-05 4.26025e-06 
172 1 41.0559 35.3009 4.66828 0.184188 -1.9109 -0.933251 -3.48464e-05 -7.45109e-06 1.71273e-05 
173 1 11.4809 26.7753 10.6941 2.84567 2.28377 0.405036 -2.34606e-05 1.49883e-05 -2.89959e-05 
174 1 15.6499 46.8392 43.0143 -2.68504 1.92896 -0.387735 -6.1614e-06 9.85171e-06 -7.30775e-06 
175 1 16.1859 33.8393 5.69895 -2.67162 1.23785 -0.671398 -4.70229e-05 1.49321e-05 -1.10459e-05 
176 1 1.01166 15.5099 48.2274 -3.16362 -5.60336 1.00699 -8.89986e-06 1.22966e-05 3.57069e-06 
177 1 42.4973 6.47806 29.355 -2.56633 -1.99012 -0.654774 2.6496e-05 -2.02968e-05 3.10541e-05 
178 1 10.037 9.74933 13.4155 5.24047 2.25243 0.656692 9.39204e-06 -4.44478e-06 5.77587e-06 
179 2 14.8623 43.2558 48.4671 -3.74308 -0.425605 0.810054 -2.23715e-05 3.86973e-05 -8.04031e-06 
180 2 24.1199 31.5832 24.1219 -0.558307 -0.0824252 -1.52995 -6.53495e-06 -9.19785e-06 -2.17018e-05 
181 2 44.1725 28.5961 1.83125 1.17503 0.844989 0.84214 -2.58228e-05 6.86787e-06 2.11278e-05 
182 1 12.397 4.08785 19.456 3.07767 2.02601 1.70268 2.3934e-05 -9.20001e-06 -3.04784e-06 
183 1 49.2237 39.7863 13.631 2.31919 -1.94042 2.56675 -2.10086e-05 6.933e-06 7.26325e-06 
184 1 17.6771 49.7225 10.9353 -0.50399 -2.4657 1.61974 -9.74586e-07 1.00706e-05 1.6402e-05 
185 1 27.0152 48.9134 11.4337 0.787864 -3.92605 3.7693 -2.17441e-06 -6.58164e-06 3.70493e-07 
186 2 8.5718 8.84875 48.8834 -0.376288 0.562103 -0.0655392 1.61847e-06 6.43101e-06 3.59758e-07 
187 1 6.49675 3.5943 38.1178 1.26666 4.35198 -4.01559 -6.49858e-06 1.83672e-06 5.15135e-06 
188 1 42.7249 35.7591 9.55305 -0.0788305 1.50695 -1.80581 -3.02855e-05 5.6404e-06 5.48894e-07 
189 1 2.01215 28.0824 39.8321 2.37464 -4.15864 4.33186 -5.13621e-07 -6.14676e-06 -2.89578e-05 
190 1 43.4154 38.5097 39.8283 1.4538 0.873428 0.858921 -1.50341e-05 1.53814e-06 -4.74343e-06 
191 1 30.5422 3.54772 5.16319 1.3835 -1.1945 0.605684 -1.14091e-05 2.00792e-05 1.36612e-05 
192 2 33.3047 2.71398 36.096 1.4187 -0.549382 0.742194 9.49009e-06 -6.46602e-06 2.89796e-05 
193 1 9.60113 42.0982 -0.60945 0.92692 1.06599 1.03502 -2.1514e-05 1.68438e-05 -1.05998e-05 
194 1 15.842 37.2796 15.7715 1.66907 -1.55212 -2.52295 -2.3158e-05 2.08229e-05 5.98126e-06 
195 1 16.7627 28.1712 41.3982 -0.970964 -0.502645 -2.81152 -7.50025e-06 1.05778e-05 -1.98666e-05 
196 1 50.3111 15.6109 7.64862 0.145051 0.266193 1.26549 1.21567e-05 3.83702e-06 -9.08215e-06 
197 1 25.5535 51.2341 14.5662 1.37077 2.72864 -1.11951 6.51192e-06 2.42913e-06 -4.25519e-05 
198 2 25.4882 52.2908 28.6346 -1.73677 -0.948518 0.433398 1.63073e-05 1.81541e-05 3.36455e-05 
199 1 3.00525 31.8697 45.7364 1.86556 -1.01052 2.04393 -1.47419e-05 1.12594e-05 -5.35169e-06 
200 1 14.8567 34.9961 21.2375 -0.938911 -0.953411 1.47786 -1.79219e-05 9.6705e-06 -7.50347e-06 
201 1 -0.31662 23.8071 31.7258 -2.1868 -0.179633 1.66169 2.3742e-05 -4.94258e-06 -1.87929e-05 
202 1 20.6885 50.6792 38.608 -0.233353 -1.39486 -2.83408 2.0124e-05 1.64403e-05 8.92532e-06 
203 1 42.3194 41.1951 32.6421 -2.10258 -1.15464 0.263863 7.3172e-06 -1.31183e-05 6.078e-06 
204 1 2.62618 36.0421 3.60274 1.56045 -3.49368 0.978503 -2.93996e-05 1.46363e-05 5.22968e-06 
205 1 15.4129 18.9999 3.81167 0.632521 -1.11942 -2.5096 -3.77717e-05 6.21478e-06 -1.87502e-05 
206 1 33.3937 46.3497 30.2364 3.71145 0.163251 -1.10356 4.60574e-06 -1.85775e-05 6.78367e-06 
207 2 9.98396 1.74319 5.84218 1.516 -0.212088 -0.889218 -3.21833e-06 1.92654e-05 5.71465e-06 
208 1 17.0661 13.2835 5.92895 -4.05523 0.171609 0.617894 -7.09535e-06 -2.46421e-05 -1.00321e-05 
209 1 33.7806 7.92536 32.4895 0.531192 1.1508 -5.10796 2.2006e-05 -1.02715e-05 1.38692e-05 
210 1 11.8063 18.2763 12.24 0.604269 0.718353 0.55814 1.229e-05 1.49984e-05 1.92857e-06 
211 2 6.0312 52.212 46.9199 0.0818835 -0.170799 -0.914882 -1.57137e-05 1.39108e-05 1.03281e-05 
212 1 16.0752 49.6869 23.1014 -3.71952 1.56439 0.0545536 1.54153e-05 4.52143e-06 1.76479e-05 
213 2 40.4425 19.1822 43.0324 0.017435 0.175247 2.65376 -1.321e-06 1.13672e-05 -1.03408e-05 
214 1 33.2576 34.5539 30.4967 -0.798401 -2.71424 -3.136 -8.00209e-06 -1.94725e-05 -3.68874e-06 
215 1 37.5192 32.1839 46.5109 -2.55835 -0.763783 -1.62848 -2.52534e-05 -5.3044e-06 2.57078e-05 
216 1 41.0692 35.236 17.7838 1.7964 -0.818189 3.12313 -3.53375e-05 -2.80263e-05 1.38676e-06 
217 1 43.5505 35.6455 38.6381 3.11849 2.06437 -0.563977 -1.05033e-05 -6.05926e-06 -2.11617e-05 
218 1 24.153 47.0188 14.8981 -0.434635 2.04784 2.43211 6.70081e-06 1.81677e-05 -2.20402e-05 
219 1 18.1064 32.4469 6.07948 0.465311 -1.53329 1.30564 -4.51392e-05 3.16186e-06 -1.61412e-05 
220 1 49.7351 28.4365 46.7002 0.622021 -1.67263 0.027603 -1.04127e-05 1.20959e-05 -1.73246e-05 
221 1 9.34469 38.4197 9.64396 0.0199771 -2.69739 3.15155 -2.4191e-05 2.71809e-05 -5.93293e-06 
222 1 17.3215 30.7597 37.0377 -1.55346 -3.58544 0.383738 2.27149e-07 -6.36549e-06 -2.02678e-05 
223 1 47.8474 24.8577 14.6187 0.832271 1.26924 2.21555 -6.86873e-06 -3.96495e-06 -6.18934e-06 
224 2 15.8039 46.0076 48.2341 0.243267 -0.517416 -0.0557892 -9.07472e-06 2.10146e-05 -6.53869e-08 
225 1 22.8376 1.84222 2.29464 0.00533515 1.5948 2.69999 -3.75296e-07 4.91795e-05 2.68388e-05 
226 1 1.02237 27.1461 33.7482 -2.46051 -0.613771 -4.98365 1.63416e-05 1.13464e-05 -3.42947e-05 
227 1 37.5068 31.2238 25.4199 -1.50453 1.41449 -0.0595975 -4.58616e-05 -3.61353e-05 -1.16308e-05 
228 1 8.69684 11.4468 29.9818 3.39583 0.578656 -0.874495 3.24745e-05 4.95688e-06 -5.85105e-07 
229 1 33.7531 52.257 35.5869 1.46091 0.341496 3.93326 -1.18146e-05 -5.03874e-06 8.86429e-06 
230 2 31.7323 19.9898 46.5295 1.01144 2.2718 0.701912 -9.04517e-06 2.60466e-05 9.52978e-06 
231 1 35.8524 26.966 24.4827 0.829932 4.44806 -1.77895 1.02788e-05 -2.23323e-05 -3.50435e-05 
232 1 50.7334 19.9614 38.2103 0.587081 3.24196 2.57154 1.27686e-05 2.77096e-05 -2.42442e-05 
233 1 48.5557 21.1136 13.0941 -0.665333 3.47569 -0.846747 5.99017e-06 -6.96366e-06 -6.72292e-07 
234 1 6.76385 27.6512 4.26715 0.568871 0.342236 1.09902 -1.94797e-05 2.21488e-05 -2.2335e-05 
235 1 38.9123 17.449 11.2586 -2.83877 1.50414 -0.373581 2.82921e-05 9.43722e-06 6.90173e-06 
236 2 20.69 12.5941 46.2846 -1.24306 1.56335 -2.1237 5.33835e-06 2.94872e-05 1.01802e-05 
237 2 -0.417748 43.8585 3.14354 2.86085 -0.38485 -2.61276 -1.4453e-05 -1.49269e-06 3.06285e-06 
238 1 0.246504 1.05822 45.1243 0.60747 1.59025 1.60268 5.88823e-06 -3.31445e-06 -2.48151e-06 
239 1 7.27988 27.8024 22.7768 -3.101 2.63844 0.954957 2.74191e-05 2.80197e-05 -4.45821e-06 
240 1 50.4165 50.866 23.4254 1.99225 -4.38269 0.239597 7.66297e-06 -1.04625e-05 8.9708e-06 
241 1 20.7229 9.37687 30.5804 2.59117 -0.0703608 -1.52661 2.48981e-05 -1.05322e-05 -1.57677e-05 
242 2 9.77239 4.28061 35.3897 -0.586652 -0.149279 0.594089 1.65194e-05 6.27803e-06 4.2246e-06 
243 1 37.2587 29.1403 21.3791 -3.11988 0.173555 0.152708 -3.32973e-05 -5.60528e-06 -7.72054e-06 
244 1 46.2309 33.6213 23.5414 -2.23644 -0.703627 1.37633 2.23676e-05 1.96253e-05 -2.32634e-06 
245 1 1.95066 44.7019 3.23166 1.77753 0.650301 -1.53024 -2.29966e-05 1.94561e-05 1.3306e-05 
246 1 19.8307 6.77534 49.3725 -3.37209 1.16355 0.582771 9.84797e-06 8.37335e-05 3.07622e-05 
247 2 42.997 16.4091 48.9232 -1.06339 -1.21878 2.70095 1.39259e-05 1.34852e-05 2.99791e-06 
248 1 29.3836 33.7167 8.92366 1.80158 -2.16916 1.44658 -3.73764e-05 -2.12063e-05 2.21153e-06 
249 2 4.90344 0.838981 7.12721 -2.62726 -0.63039 -0.190936 -7.94856e-06 7.61447e-06 -4.54515e-06 
250 1 -0.551399 29.9971 36.9377 3.4531 -1.92198 1.9062 -3.13919e-07 1.74956e-05 9.94088e-06 
251 1 6.36127 28.569 6.4581 0.578111 1.06831 -3.33011 -1.4007e-05 1.29187e-05 -6.18373e-05 
252 1 38.1236 40.1299 40.6278 -2.03202 -0.762043 0.293611 -1.6147e-05 -2.96218e-07 1.44849e-05 
253 1 40.3677 4.61551 5.20106 2.30171 0.89271 -1.16816 -1.39611e-06 2.42996e-06 1.88301e-05 
254 1 28.6072 0.0592597 13.6529 -0.378745 -1.89314 -3.38782 -8.9451e-06 4.58159e-06 -1.21668e-05 
255 1 42.2629 14.3312 24.6322 -0.117665 -1.75956 1.51953 2.31013e-05 -1.49505e-05 2.4662e-05 
256 1 14.9677 51.0024 44.0763 2.76058 1.14119 -0.839223 1.71165e-05 2.33492e-05 3.92762e-06 
257 1 40.7441 38.9486 45.7582 -0.480128 2.32312 1.87711 -1.46999e-05 -3.28605e-06 -7.38221e-06 
258 1 43.8619 12.3174 0.491652 -1.66831 -1.72154 -0.0965855 1.97443e-05 1.80067e-06 -9.23295e-06 
259 1 50.3658 31.1101 0.202814 2.3684 -1.66459 -0.0120994 -2.63119e-05 9.8254e-06 3.54866e-06 
260 1 5.73908 0.802221 23.6204 -0.627885 -6.6145 -1.26734 7.69525e-06 -8.59771e-07 2.03636e-06 
261 1 49.8646 19.3523 16.7811 -2.22654 4.35916 -1.50697 9.58852e-06 -9.28683e-08 -3.46229e-06 
262 1 49.111 33.5703 24.4748 -1.23447 -3.56158 -0.387558 -6.57366e-06 -9.49554e-06 2.32938e-06 
263 1 2.64977 47.0487 2.36951 2.07767 -0.283602 1.11656 -2.70012e-05 2.04102e-05 -1.06643e-05 
264 1 32.0588 34.4762 2.43882 0.555494 3.67802 0.670101 -3.89692e-05 -9.41497e-06 3.79545e-06 
265 1 49.9212 3.93696 13.5082 2.31833 -2.21679 0.26142 1.83202e-06 -7.63438e-06 -5.8262e-06 
266 1 3.78792 16.6379 19.0729 -1.80401 -0.272312 1.46032 2.31394e-05 -1.15117e-05 -1.16392e-05 
267 1 42.2734 -0.192286 0.102726 1.28732 3.0833 0.646636 -9.17445e-06 -6.95817e-06 1.27679e-05 
268 1 19.8806 5.5098 43.1753 -2.09365 0.907689 0.789194 9.54672e-06 2.51526e-05 5.60767e-06 
269 1 50.5661 47.1423 39.64 0.0879873 1.53328 -1.17141 3.31581e-06 4.24976e-06 1.40087e-05 
270 1 26.6493 11.2729 26.5757 3.27202 0.878418 2.62369 2.76679e-05 -6.79978e-06 2.20914e-05 
271 2 47.9655 36.6648 33.4381 -1.08941 0.612323 -0.34609 -1.18143e-05 -2.59225e-06 -3.93437e-06 
272 1 10.8436 40.2424 37.9502 3.8138 0.0624653 1.74853 3.65282e-06 3.29411e-05 -3.02844e-05 
273 1 32.8281 40.1714 35.1763 1.2626 -2.42949 1.31123 -6.41434e-06 -2.10736e-05 -2.66235e-06 
274 1 43.2048 34.9034 47.1202 -1.70285 0.838373 -2.29083 -1.28683e-05 1.5238e-06 -1.42587e-05 
275 2 3.41789 5.78541 19.373 -1.10211 -0.674239 0.585992 1.75578e-05 -1.16839e-06 1.85021e-06 
276 1 9.96893 46.8031 -0.417972 -0.20095 0.381266 -0.853442 -4.63579e-06 2.51986e-05 3.30035e-06 
277 2 23.9432 48.3154 -0.212613 -0.217136 -0.902104 0.562188 -9.36218e-06 7.77978e-06 6.48965e-06 
278 1 35.2231 50.4508 18.547 -0.417244 4.47221 -3.46001 -1.52935e-05 -1.76024e-05 2.00884e-05 
279 1 23.4796 29.5912 46.9356 -5.74191 0.148653 0.0152961 -3.2543e-05 7.69172e-06 -4.00297e-05 
280 1 22.1464 17.3718 35.625 -2.10172 0.727222 0.934006 1.96485e-05 -1.25095e-06 -7.82631e-06 
281 2 30.2856 13.586 6.38066 1.34078 2.37092 0.0596321 -4.69717e-06 0.000218918 -0.000185146 
282 2 3.7242 49.1712 33.3176 1.01378 -0.0808498 0.458164 1.30393e-05 2.77213e-06 8.03956e-06 
283 1 25.3157 9.77927 29.5177 0.705759 -0.209496 2.65356 2.26864e-05 -1.94952e-05 6.9288e-06 
284 1 35.3655 0.634234 32.7596 1.16107 -0.463473 0.117128 -2.11264e-07 -1.41263e-05 5.46661e-05 
285 1 49.6034 30.8779 4.40829 1.93025 -4.53469 1.21275 -2.40022e-05 1.53385e-05 -2.6549e-06 
286 1 45.6289 3.6189 33.9081 1.87549 3.01269 -4.44665 8.57709e-06 -1.74835e-05 2.62712e-05 
287 1 34.9099 26.9518 17.019 3.18921 -1.39408 2.23699 3.49875e-06 -3.22184e-05 -3.52246e-06 
288 1 40.8754 34.1391 46.695 -1.72396 2.67098 -0.812468 -1.44574e-05 -9.33084e-06 -2.07775e-06 
289 1 35.7922 23.6722 22.3131 -2.37357 -2.19588 0.925669 -1.20289e-05 -4.83549e-05 -2.00691e-06 
290 1 18.5576 44.1109 24.335 0.0855811 0.21762 -0.459147 -5.67397e-06 2.51897e-05 5.32966e-06 
291 2 5.4919 50.2061 16.6217 1.78454 0.447728 -1.76747 -8.82003e-06 -9.79883e-07 1.53197e-05 
292 1 27.1001 48.9382 37.2764 -0.600514 0.77067 0.400859 1.38947e-06 4.26026e-06 2.25839e-05 
293 1 41.1685 20.5138 37.0322 -1.69598 -2.32085 -0.569479 1.14018e-05 5.09565e-06 9.32839e-06 
294 1 6.85034 12.5432 1.38665 0.795762 -1.83499 1.59845 -4.62489e-06 2.25154e-05 -7.36036e-06 
295 1 15.973 28.8514 37.6318 3.30357 -0.138383 0.030406 -4.19437e-06 -9.7935e-06 -3.08367e-05 
296 1 6.98656 40.9729 23.3417 4.1378 -0.118741 -0.97474 -9.32512e-06 1.1661e-05 2.52879e-06 
297 1 24.0418 18.1462 44.229 -0.883621 0.522358 -1.92865 1.15912e-05 -3.27994e-05 -2.25079e-05 
298 1 43.8505 17.1112 4.51283 -0.0983104 -0.774869 0.245535 1.68493e-05 1.52143e-05 -2.2112e-05 
299 1 26.7232 23.2589 10.922 0.519213 1.39303 -1.95124 -0.000236725 9.45908e-05 0.000102615 
300 1 17.3821 20.8072 9.75882 -1.33342 -4.92024 -2.87201 4.22473e-06 -4.42755e-05 7.7069e-06 
301 1 35.9892 13.5116 17.0782 -2.73772 0.90956 2.3664 -1.31319e-05 -2.25121e-05 6.50113e-06 
302 1 12.8569 2.14624 29.1966 -0.123801 -0.416892 -3.79256 2.58626e-06 3.77932e-06 1.40902e-05 
303 1 32.6221 28.1574 3.83735 1.6543 -1.38639 0.930121 -5.08461e-05 -3.42024e-05 1.63089e-05 
304 1 2.89733 51.4987 0.643226 -0.834796 -0.290461 1.63571 -1.22226e-05 1.28172e-05 -1.00303e-05 
305 1 42.0104 38.5339 12.779 0.114949 -1.02535 -1.23994 -3.64574e-05 -2.19885e-05 2.24647e-05 
306 1 27.2386 0.544121 46.4268 -2.60153 -1.0116 -1.19642 1.06076e-05 1.7593e-05 7.90819e-06 
307 1 38.0778 47.57 9.45311 0.184432 -0.221157 -0.660738 -1.50346e-05 -3.52131e-06 2.18135e-05 
308 1 2.87569 27.0593 17.7365 -0.0241711 1.12631 -1.65492 1.32944e-06 5.74371e-06 -3.00384e-06 
309 1 12.5991 43.1093 47.1794 1.73288 -4.30447 0.49908 -7.98536e-06 1.25422e-05 2.01252e-06 
310 1 34.1564 21.4111 0.734777 0.634323 -1.05041 -2.69509 -1.05566e-05 -7.24075e-06 2.36263e-05 
311 1 1.76666 29.3846 33.1177 -2.96339 0.671364 -1.65568 -1.73178e-05 2.41638e-05 -1.77645e-05 
312 1 31.5832 12.9175 32.5095 0.279834 1.42395 4.62724 3.23216e-05 -1.70465e-05 2.19689e-05 
313 1 7.12902 13.0256 3.84181 0.1224 -0.634497 -2.23235 -3.47562e-06 1.0004e-06 -1.16718e-05 
314 1 16.2561 39.625 25.4022 1.04198 -0.0629738 -1.37357 -2.08342e-06 1.70969e-05 9.6769e-06 
315 1 18.6839 36.8143 46.9426 3.77533 -2.18617 -0.340081 -3.03703e-06 1.89122e-05 -1.73416e-05 
316 2 48.3938 1.29623 28.9438 0.800439 -2.47575 0.649202 -3.27967e-06 -2.03629e-05 8.11484e-06 